    -----------------------------------------------------------------------
          PSI4: An Open-Source Ab Initio Electronic Structure Package
                              PSI 4.0.0-beta5+ Driver

               Git: Rev {master} 85577eaffa00a6e4277478379e41f4348d3efa5b

    J. M. Turney, A. C. Simmonett, R. M. Parrish, E. G. Hohenstein,
    F. A. Evangelista, J. T. Fermann, B. J. Mintz, L. A. Burns, J. J. Wilke,
    M. L. Abrams, N. J. Russ, M. L. Leininger, C. L. Janssen, E. T. Seidl,
    W. D. Allen, H. F. Schaefer, R. A. King, E. F. Valeev, C. D. Sherrill,
    and T. D. Crawford, WIREs Comput. Mol. Sci. 2, 556-565 (2012)
    (doi: 10.1002/wcms.93)

                         Additional Contributions by
    A. E. DePrince, M. Saitow, U. Bozkaya, A. Yu. Sokolov
    -----------------------------------------------------------------------

    Process ID:  29322
    PSI4DATADIR: /edfs/users/edgroup/psi4-install/share/psi

    Using LocalCommunicator (Number of processes = 1)

    Memory level set to 256.000 MB

  ==> Input File <==

--------------------------------------------------------------------------

# PYTHONPATH must include directory above plugin directory.
#     Define either externally or here, then import plugin.
sys.path.insert(0, './..')
import bpsdp
molecule {
O
H 1 R
H 1 R 2 A

R = .9
A = 104.5
symmetry c1
}

set {
  basis sto-3g
}

set bpsdp {
  print 1
}

energy('bpsdp')

bpsdp.exampleFN()

--------------------------------------------------------------------------
/edfs/users/jacob/chem/deprince-group/plugins/bpsdp/bpsdp.so loaded.

*** tstart() called on ed4
*** at Wed Jul  9 18:03:47 2014

	There are an even number of electrons - assuming singlet.
	Specify the multiplicity with the MULTP option in the
	input if this is incorrect


         ---------------------------------------------------------
                                   SCF
            by Justin Turney, Rob Parrish, and Andy Simmonett
                              RHF Reference
                        1 Threads,    256 MiB Core
         ---------------------------------------------------------

  ==> Geometry <==

    Molecular point group: c1
    Full point group: C2v

    Geometry (in Angstrom), charge = 0, multiplicity = 1:

       Center              X                  Y                   Z       
    ------------   -----------------  -----------------  -----------------
           O          0.000000000000     0.000000000000    -0.061664597379
           H          0.000000000000    -0.711620616369     0.489330954652
           H          0.000000000000     0.711620616369     0.489330954652

  Running in c1 symmetry.


	Rotational constants (cm^-1):
	A =   31.01920    B =   16.51522   C =   10.77722

	Rotational constants (MHz):
	A = 929932.18007    B = 495113.78280   C = 323092.90466
  Nuclear repulsion =    9.779406144413407

  Charge       = 0
  Multiplicity = 1
  Electrons    = 10
  Nalpha       = 5
  Nbeta        = 5

  ==> Algorithm <==

  SCF Algorithm Type is PK.
  DIIS enabled.
  MOM disabled.
  Fractional occupation disabled.
  Guess Type is CORE.
  Energy threshold   = 1.00e-08
  Density threshold  = 1.00e-08
  Integral threshold = 0.00e+00

  ==> Primary Basis <==

  Basis Set: STO-3G
    Number of shells: 5
    Number of basis function: 7
    Number of Cartesian functions: 7
    Spherical Harmonics?: true
    Max angular momentum: 1

  ==> Pre-Iterations <==

   -------------------------------------------------------
    Irrep   Nso     Nmo     Nalpha   Nbeta   Ndocc  Nsocc
   -------------------------------------------------------
     A          7       7       0       0       0       0
   -------------------------------------------------------
    Total       7       7       5       5       5       0
   -------------------------------------------------------

  Starting with a DF guess...

 OEINTS: Wrapper to libmints.
   by Justin Turney

   Calculation information:
      Number of atoms:                   3
      Number of AO shells:               5
      Number of SO shells:               5
      Number of primitives:             15
      Number of atomic orbitals:         7
      Number of basis functions:         7

      Number of irreps:                  1
      Number of functions per irrep: [   7 ]

      Overlap, kinetic, potential, dipole, and quadrupole integrals
        stored in file 35.

  ==> Integral Setup <==

  ==> DFJK: Density-Fitted J/K Matrices <==

    J tasked:                  Yes
    K tasked:                  Yes
    wK tasked:                  No
    OpenMP threads:              1
    Integrals threads:           1
    Memory (MB):               183
    Algorithm:                Core
    Integral Cache:           NONE
    Schwarz Cutoff:          1E-12
    Fitting Condition:       1E-12

   => Auxiliary Basis Set <=

  Basis Set: CC-PVDZ-JKFIT
    Number of shells: 42
    Number of basis function: 116
    Number of Cartesian functions: 131
    Spherical Harmonics?: true
    Max angular momentum: 3

  Minimum eigenvalue in the overlap matrix is 3.0451397022E-01.
  Using Symmetric Orthogonalization.
  SCF Guess: Core (One-Electron) Hamiltonian.

  ==> Iterations <==

                           Total Energy        Delta E     RMS |[F,P]|

   @DF-RHF iter   1:   -73.19700007804252   -7.31970e+01   1.61152e-01 
   @DF-RHF iter   2:   -74.93914529147915   -1.74215e+00   1.25117e-02 DIIS
   @DF-RHF iter   3:   -74.94460396320957   -5.45867e-03   2.93388e-03 DIIS
   @DF-RHF iter   4:   -74.94503022571413   -4.26263e-04   5.52611e-04 DIIS
   @DF-RHF iter   5:   -74.94505038727269   -2.01616e-05   1.04960e-04 DIIS
   @DF-RHF iter   6:   -74.94505106082258   -6.73550e-07   7.04714e-06 DIIS
   @DF-RHF iter   7:   -74.94505106261465   -1.79207e-09   3.27146e-08 DIIS
   @DF-RHF iter   8:   -74.94505106261468   -2.84217e-14   3.32597e-10 DIIS

  DF guess converged.

  ==> Integral Setup <==

 MINTS: Wrapper to libmints.
   by Justin Turney

   Calculation information:
      Number of atoms:                   3
      Number of AO shells:               5
      Number of SO shells:               5
      Number of primitives:             15
      Number of atomic orbitals:         7
      Number of basis functions:         7

      Number of irreps:                  1
      Integral cutoff                 0.00e+00
      Number of functions per irrep: [   7 ]

      Overlap, kinetic, potential, dipole, and quadrupole integrals
        stored in file 35.

      Computing two-electron integrals...done
      Computed 231 non-zero two-electron integrals.
        Stored in file 33.

	Batch   1 pq = [       0,      28] index = [             0,406]
  ==> DiskJK: Disk-Based J/K Matrices <==

    J tasked:                  Yes
    K tasked:                  Yes
    wK tasked:                  No
    Memory (MB):               183
    Schwarz Cutoff:          1E-12

   @RHF iter   9:   -74.94502101037963    3.00522e-05   1.77690e-06 DIIS
   @RHF iter  10:   -74.94502101052154   -1.41910e-10   5.49019e-07 DIIS
   @RHF iter  11:   -74.94502101053743   -1.58877e-11   9.74579e-08 DIIS
   @RHF iter  12:   -74.94502101053806   -6.25278e-13   2.45078e-08 DIIS
   @RHF iter  13:   -74.94502101053803    2.84217e-14   2.69549e-10 DIIS

  ==> Post-Iterations <==

	Orbital Energies (a.u.)
	-----------------------

	Doubly Occupied:                                                      

	   1A    -20.236192     2A     -1.300480     3A     -0.649309  
	   4A     -0.460194     5A     -0.396298  

	Virtual:                                                              

	   6A      0.664827     7A      0.813314  

	Final Occupation by Irrep:
	          A 
	DOCC [     5 ]

  Energy converged.

  @RHF Final Energy:   -74.94502101053803

   => Energetics <=

    Nuclear Repulsion Energy =              9.7794061444134073
    One-Electron Energy =                -123.3639077707136238
    Two-Electron Energy =                  38.6394806157621886
    DFT Exchange-Correlation Energy =       0.0000000000000000
    Empirical Dispersion Energy =           0.0000000000000000
    Total Energy =                        -74.9450210105380279



Properties will be evaluated at   0.000000,   0.000000,   0.000000 Bohr
  ==> Properties <==


Properties computed using the SCF density density matrix
  Nuclear Dipole Moment: (a.u.)
     X:     0.0000      Y:    -0.0000      Z:     0.9172

  Electronic Dipole Moment: (a.u.)
     X:    -0.0000      Y:    -0.0000      Z:    -0.2095

  Dipole Moment: (a.u.)
     X:    -0.0000      Y:    -0.0000      Z:     0.7076     Total:     0.7076

  Dipole Moment: (Debye)
     X:    -0.0000      Y:    -0.0000      Z:     1.7986     Total:     1.7986


  Saving occupied orbitals to File 180.

*** tstop() called on ed4 at Wed Jul  9 18:03:47 2014
Module time:
	user time   =       0.16 seconds =       0.00 minutes
	system time =       0.02 seconds =       0.00 minutes
	total time  =          0 seconds =       0.00 minutes
Total time:
	user time   =       0.16 seconds =       0.00 minutes
	system time =       0.02 seconds =       0.00 minutes
	total time  =          0 seconds =       0.00 minutes
Reading options from the BPSDP block
Calling plugin bpsdp.so.
  ## Overlap (Symmetry 0) ##
  Irrep: 1 Size: 7 x 7

                 1                   2                   3                   4                   5

    1     1.00000000000000     0.23670393651085     0.00000000000000     0.00000000000000     0.00000000000000
    2     0.23670393651085     1.00000000000000     0.00000000000000     0.00000000000000     0.00000000000000
    3     0.00000000000000     0.00000000000000     1.00000000000000     0.00000000000000     0.00000000000000
    4     0.00000000000000     0.00000000000000     0.00000000000000     1.00000000000000     0.00000000000000
    5     0.00000000000000     0.00000000000000     0.00000000000000     0.00000000000000     1.00000000000000
    6     0.06178327742757     0.51304925582528     0.25254598381135     0.00000000000000    -0.32616765779508
    7     0.06178327742757     0.51304925582528     0.25254598381135     0.00000000000000     0.32616765779508

                 6                   7

    1     0.06178327742757     0.06178327742757
    2     0.51304925582528     0.51304925582528
    3     0.25254598381135     0.25254598381135
    4     0.00000000000000     0.00000000000000
    5    -0.32616765779508     0.32616765779508
    6     1.00000000000000     0.28626575599269
    7     0.28626575599269     1.00000000000000



  ## Kinetic (Symmetry 0) ##
  Irrep: 1 Size: 7 x 7

                 1                   2                   3                   4                   5

    1    29.00319994553958    -0.16801093931649     0.00000000000000     0.00000000000000     0.00000000000000
    2    -0.16801093931649     0.80812795493035     0.00000000000000     0.00000000000000     0.00000000000000
    3     0.00000000000000     0.00000000000000     2.52873119819476     0.00000000000000     0.00000000000000
    4     0.00000000000000     0.00000000000000     0.00000000000000     2.52873119819476     0.00000000000000
    5     0.00000000000000     0.00000000000000     0.00000000000000     0.00000000000000     2.52873119819476
    6     0.00222535605822     0.15794810851302     0.20211408363275     0.00000000000000    -0.26103395615722
    7     0.00222535605822     0.15794810851302     0.20211408363275     0.00000000000000     0.26103395615722

                 6                   7

    1     0.00222535605822     0.00222535605822
    2     0.15794810851302     0.15794810851302
    3     0.20211408363275     0.20211408363275
    4     0.00000000000000     0.00000000000000
    5    -0.26103395615722     0.26103395615722
    6     0.76003188356661     0.01708903320174
    7     0.01708903320174     0.76003188356661



  ## potential (Symmetry 0) ##
  Irrep: 1 Size: 7 x 7

                 1                   2                   3                   4                   5

    1   -61.79440425784485    -7.46143128550798    -0.02150044920205     0.00000000000000     0.00000000000000
    2    -7.46143128550798   -10.20567911322585    -0.24679227142554     0.00000000000000    -0.00000000000000
    3    -0.02150044920205    -0.24679227142554   -10.14448528539026     0.00000000000000    -0.00000000000000
    4     0.00000000000000     0.00000000000000     0.00000000000000   -10.03745126852369     0.00000000000000
    5     0.00000000000000    -0.00000000000000    -0.00000000000000     0.00000000000000   -10.21598598633731
    6    -2.00866388209570    -4.28175272679304    -1.96774549326859     0.00000000000000     2.42948081005922
    7    -2.00866388209570    -4.28175272679304    -1.96774549326859     0.00000000000000    -2.42948081005922

                 6                   7

    1    -2.00866388209570    -2.00866388209570
    2    -4.28175272679304    -4.28175272679304
    3    -1.96774549326859    -1.96774549326859
    4     0.00000000000000     0.00000000000000
    5     2.42948081005922    -2.42948081005922
    6    -6.08610919860604    -1.90967740661139
    7    -1.90967740661139    -6.08610919860604



  ## one electron integral in AO (Symmetry 0) ##
  Irrep: 1 Size: 7 x 7

                 1                   2                   3                   4                   5

    1   -32.79120431230528    -7.62944222482447    -0.02150044920205     0.00000000000000     0.00000000000000
    2    -7.62944222482447    -9.39755115829550    -0.24679227142554     0.00000000000000    -0.00000000000000
    3    -0.02150044920205    -0.24679227142554    -7.61575408719549     0.00000000000000    -0.00000000000000
    4     0.00000000000000     0.00000000000000     0.00000000000000    -7.50872007032893     0.00000000000000
    5     0.00000000000000    -0.00000000000000    -0.00000000000000     0.00000000000000    -7.68725478814254
    6    -2.00643852603748    -4.12380461828003    -1.76563140963584     0.00000000000000     2.16844685390201
    7    -2.00643852603748    -4.12380461828003    -1.76563140963584     0.00000000000000    -2.16844685390201

                 6                   7

    1    -2.00643852603748    -2.00643852603748
    2    -4.12380461828003    -4.12380461828003
    3    -1.76563140963584    -1.76563140963584
    4     0.00000000000000     0.00000000000000
    5     2.16844685390201    -2.16844685390201
    6    -5.32607731503943    -1.89258837340964
    7    -1.89258837340964    -5.32607731503943



  ## MO ERI Tensor (Symmetry 0) ##
  Irrep: 1 Size: 49 x 49

                 1                   2                   3                   4                   5

    1     4.74345331715566     0.41290974162475     0.00000000000000     0.18840033374972    -0.00000000000000
    2     0.41290974162475     0.05735856170963     0.00000000000000     0.02238188084874    -0.00000000000000
    3     0.00000000000000     0.00000000000000     0.01130405441263    -0.00000000000000    -0.00000000000000
    4     0.18840033374972     0.02238188084874    -0.00000000000000     0.02896846510865     0.00000000000000
    5    -0.00000000000000    -0.00000000000000    -0.00000000000000     0.00000000000000     0.02608188521221
    6     0.25332831138477     0.03804133216001    -0.00000000000000     0.00182945322597     0.00000000000000
    7     0.00000000000001     0.00000000000000     0.01584503457830     0.00000000000000     0.00000000000000
    8     0.41290974162475     0.05735856170963    -0.00000000000000     0.02238188084874    -0.00000000000000
    9     1.00264779753511     0.01205727216064     0.00000000000000     0.01762039580322    -0.00000000000000
   10    -0.00000000000000    -0.00000000000000    -0.01835303601158     0.00000000000000     0.00000000000000
   11     0.11672110055334     0.00962346578077     0.00000000000000    -0.01912307423233    -0.00000000000000
   12    -0.00000000000000    -0.00000000000000     0.00000000000000    -0.00000000000000    -0.03222831863613
   13     0.32274772138558     0.00684761210014     0.00000000000000     0.01871724874473    -0.00000000000000
   14     0.00000000000001     0.00000000000000    -0.01349085825180     0.00000000000000    -0.00000000000000
   15     0.00000000000000    -0.00000000000000     0.01130405441263    -0.00000000000000    -0.00000000000000
   16    -0.00000000000000    -0.00000000000000    -0.01835303601158     0.00000000000000     0.00000000000000
   17     0.81826669027199     0.00434493147883     0.00000000000000     0.00682156232331    -0.00000000000000
   18    -0.00000000000000    -0.00000000000000    -0.00387641550764     0.00000000000000     0.00000000000000
   19    -0.00000000000000    -0.00000000000000    -0.00000000000000     0.00000000000000     0.00000000000000
   20    -0.00000000000001    -0.00000000000000    -0.00338813654416     0.00000000000000     0.00000000000000
   21     0.35962670736051     0.00783918715486     0.00000000000000    -0.00117466224451    -0.00000000000000
   22     0.18840033374972     0.02238188084874    -0.00000000000000     0.02896846510865     0.00000000000000
   23     0.11672110055334     0.00962346578077     0.00000000000000    -0.01912307423233    -0.00000000000000
   24    -0.00000000000000    -0.00000000000000    -0.00387641550764     0.00000000000000     0.00000000000000
   25     1.02230914375858     0.01457449643895     0.00000000000000    -0.01239160848920    -0.00000000000000
   26     0.00000000000000    -0.00000000000000     0.00000000000000    -0.00000000000000    -0.01390834185154
   27    -0.19919717039275    -0.00167032980742     0.00000000000000    -0.00296261035828    -0.00000000000000
   28    -0.00000000000000    -0.00000000000000    -0.01020474570126    -0.00000000000000    -0.00000000000000
   29    -0.00000000000000    -0.00000000000000    -0.00000000000000     0.00000000000000     0.02608188521221
   30    -0.00000000000000    -0.00000000000000     0.00000000000000    -0.00000000000000    -0.03222831863613
   31    -0.00000000000000    -0.00000000000000    -0.00000000000000     0.00000000000000     0.00000000000000
   32     0.00000000000000    -0.00000000000000     0.00000000000000    -0.00000000000000    -0.01390834185154
   33     1.11532658652446     0.01155143579962     0.00000000000000     0.00523703450946    -0.00000000000000
   34     0.00000000000000    -0.00000000000000     0.00000000000000    -0.00000000000000    -0.01675835710798
   35     0.00000000000000     0.00000000000000     0.00000000000000    -0.00000000000000    -0.00000000000000
   36     0.25332831138477     0.03804133216001    -0.00000000000000     0.00182945322597     0.00000000000000
   37     0.32274772138558     0.00684761210014     0.00000000000000     0.01871724874473    -0.00000000000000
   38    -0.00000000000001    -0.00000000000000    -0.00338813654416     0.00000000000000     0.00000000000000
   39    -0.19919717039275    -0.00167032980742     0.00000000000000    -0.00296261035828    -0.00000000000000
   40     0.00000000000000    -0.00000000000000     0.00000000000000    -0.00000000000000    -0.01675835710798
   41     0.81135433846652     0.00676343593142     0.00000000000000     0.02236425822926    -0.00000000000000
   42    -0.00000000000000    -0.00000000000000    -0.00990268071039     0.00000000000000    -0.00000000000000
   43     0.00000000000001     0.00000000000000     0.01584503457830     0.00000000000000     0.00000000000000
   44     0.00000000000001     0.00000000000000    -0.01349085825180     0.00000000000000    -0.00000000000000
   45     0.35962670736051     0.00783918715486     0.00000000000000    -0.00117466224451    -0.00000000000000
   46    -0.00000000000000    -0.00000000000000    -0.01020474570126    -0.00000000000000    -0.00000000000000
   47     0.00000000000000     0.00000000000000     0.00000000000000    -0.00000000000000    -0.00000000000000
   48    -0.00000000000000    -0.00000000000000    -0.00990268071039     0.00000000000000    -0.00000000000000
   49     0.88123756819202     0.00966453700317    -0.00000000000000     0.00430820586532    -0.00000000000000

                 6                   7                   8                   9                  10

    1     0.25332831138477     0.00000000000001     0.41290974162475     1.00264779753511    -0.00000000000000
    2     0.03804133216001     0.00000000000000     0.05735856170963     0.01205727216064    -0.00000000000000
    3    -0.00000000000000     0.01584503457830    -0.00000000000000     0.00000000000000    -0.01835303601158
    4     0.00182945322597     0.00000000000000     0.02238188084874     0.01762039580322     0.00000000000000
    5     0.00000000000000     0.00000000000000    -0.00000000000000    -0.00000000000000     0.00000000000000
    6     0.03364543965960     0.00000000000000     0.03804133216001     0.00024705804794     0.00000000000000
    7     0.00000000000000     0.02228479041854     0.00000000000000    -0.00000000000000    -0.02377264616113
    8     0.03804133216001     0.00000000000000     0.05735856170963     0.01205727216064    -0.00000000000000
    9     0.00024705804794    -0.00000000000000     0.01205727216064     0.73508599254500     0.00000000000000
   10     0.00000000000000    -0.02377264616113    -0.00000000000000     0.00000000000000     0.14935208644407
   11     0.02000140728173     0.00000000000000     0.00962346578077    -0.01602922588367     0.00000000000000
   12    -0.00000000000000    -0.00000000000000    -0.00000000000000    -0.00000000000000    -0.00000000000000
   13    -0.00553764392711     0.00000000000000     0.00684761210014     0.14623687842746    -0.00000000000000
   14     0.00000000000000    -0.01785692802719     0.00000000000000     0.00000000000000     0.03430711611567
   15    -0.00000000000000     0.01584503457830    -0.00000000000000     0.00000000000000    -0.01835303601158
   16     0.00000000000000    -0.02377264616113    -0.00000000000000     0.00000000000000     0.14935208644407
   17     0.00004072998270     0.00000000000000     0.00434493147883     0.65865773155337     0.00000000000000
   18    -0.00000000000000    -0.00564239884428    -0.00000000000000    -0.00000000000000    -0.01542519470759
   19    -0.00000000000000     0.00000000000000    -0.00000000000000    -0.00000000000000     0.00000000000000
   20    -0.00000000000000    -0.00424090667953    -0.00000000000000    -0.00000000000000    -0.04022952902872
   21     0.00756519396529     0.00000000000000     0.00783918715486     0.12849625215423    -0.00000000000000
   22     0.00182945322597     0.00000000000000     0.02238188084874     0.01762039580322     0.00000000000000
   23     0.02000140728173     0.00000000000000     0.00962346578077    -0.01602922588367     0.00000000000000
   24    -0.00000000000000    -0.00564239884428    -0.00000000000000    -0.00000000000000    -0.01542519470759
   25     0.02044135072743     0.00000000000000     0.01457449643895     0.67972462802270    -0.00000000000000
   26    -0.00000000000000    -0.00000000000000    -0.00000000000000     0.00000000000000    -0.00000000000000
   27     0.00046315409547     0.00000000000000    -0.00167032980742    -0.08499709563208    -0.00000000000000
   28     0.00000000000000    -0.01396810555286    -0.00000000000000    -0.00000000000000     0.07783775774451
   29     0.00000000000000     0.00000000000000    -0.00000000000000    -0.00000000000000     0.00000000000000
   30    -0.00000000000000    -0.00000000000000    -0.00000000000000    -0.00000000000000    -0.00000000000000
   31    -0.00000000000000     0.00000000000000    -0.00000000000000    -0.00000000000000     0.00000000000000
   32    -0.00000000000000    -0.00000000000000    -0.00000000000000     0.00000000000000    -0.00000000000000
   33     0.00649869140034     0.00000000000000     0.01155143579962     0.74681589484140    -0.00000000000000
   34    -0.00000000000000    -0.00000000000000    -0.00000000000000    -0.00000000000000    -0.00000000000000
   35     0.00000000000000     0.00000000000000     0.00000000000000    -0.00000000000000    -0.00000000000000
   36     0.03364543965960     0.00000000000000     0.03804133216001     0.00024705804794     0.00000000000000
   37    -0.00553764392711     0.00000000000000     0.00684761210014     0.14623687842746    -0.00000000000000
   38    -0.00000000000000    -0.00424090667953    -0.00000000000000    -0.00000000000000    -0.04022952902872
   39     0.00046315409547     0.00000000000000    -0.00167032980742    -0.08499709563208    -0.00000000000000
   40    -0.00000000000000    -0.00000000000000    -0.00000000000000    -0.00000000000000    -0.00000000000000
   41    -0.00797190120807     0.00000000000000     0.00676343593142     0.62298344234018    -0.00000000000000
   42    -0.00000000000000    -0.01303496932883    -0.00000000000000    -0.00000000000000     0.10247912974417
   43     0.00000000000000     0.02228479041854     0.00000000000000    -0.00000000000000    -0.02377264616113
   44     0.00000000000000    -0.01785692802719     0.00000000000000     0.00000000000000     0.03430711611567
   45     0.00756519396529     0.00000000000000     0.00783918715486     0.12849625215423    -0.00000000000000
   46     0.00000000000000    -0.01396810555286    -0.00000000000000    -0.00000000000000     0.07783775774451
   47     0.00000000000000     0.00000000000000     0.00000000000000    -0.00000000000000    -0.00000000000000
   48    -0.00000000000000    -0.01303496932883    -0.00000000000000    -0.00000000000000     0.10247912974417
   49     0.00576121459683    -0.00000000000000     0.00966453700317     0.63133656115809     0.00000000000001

                11                  12                  13                  14                  15

    1     0.11672110055334    -0.00000000000000     0.32274772138558     0.00000000000001     0.00000000000000
    2     0.00962346578077    -0.00000000000000     0.00684761210014     0.00000000000000    -0.00000000000000
    3     0.00000000000000     0.00000000000000     0.00000000000000    -0.01349085825180     0.01130405441263
    4    -0.01912307423233    -0.00000000000000     0.01871724874473     0.00000000000000    -0.00000000000000
    5    -0.00000000000000    -0.03222831863613    -0.00000000000000    -0.00000000000000    -0.00000000000000
    6     0.02000140728173    -0.00000000000000    -0.00553764392711     0.00000000000000    -0.00000000000000
    7     0.00000000000000    -0.00000000000000     0.00000000000000    -0.01785692802719     0.01584503457830
    8     0.00962346578077    -0.00000000000000     0.00684761210014     0.00000000000000    -0.00000000000000
    9    -0.01602922588367    -0.00000000000000     0.14623687842746     0.00000000000000     0.00000000000000
   10     0.00000000000000    -0.00000000000000    -0.00000000000000     0.03430711611567    -0.01835303601158
   11     0.11991912227293     0.00000000000000    -0.01807198302829    -0.00000000000000     0.00000000000000
   12     0.00000000000000     0.14268384456818    -0.00000000000000     0.00000000000000     0.00000000000000
   13    -0.01807198302829    -0.00000000000000     0.10447493656107     0.00000000000000     0.00000000000000
   14    -0.00000000000000     0.00000000000000     0.00000000000000     0.05942938634120    -0.01349085825180
   15     0.00000000000000     0.00000000000000     0.00000000000000    -0.01349085825180     0.01130405441263
   16     0.00000000000000    -0.00000000000000    -0.00000000000000     0.03430711611567    -0.01835303601158
   17    -0.00797444971184    -0.00000000000000     0.08011450655410     0.00000000000000     0.00000000000000
   18    -0.00000000000000    -0.00000000000000    -0.00000000000000     0.03480381894645    -0.00387641550764
   19    -0.00000000000000    -0.00000000000000    -0.00000000000000    -0.00000000000000    -0.00000000000000
   20    -0.00000000000000    -0.00000000000000    -0.00000000000000     0.03693302950107    -0.00338813654416
   21     0.07460265276102    -0.00000000000000     0.07894523834504     0.00000000000000     0.00000000000000
   22    -0.01912307423233    -0.00000000000000     0.01871724874473     0.00000000000000    -0.00000000000000
   23     0.11991912227293     0.00000000000000    -0.01807198302829    -0.00000000000000     0.00000000000000
   24    -0.00000000000000    -0.00000000000000    -0.00000000000000     0.03480381894645    -0.00387641550764
   25     0.10492020957455    -0.00000000000000     0.09800974378705     0.00000000000000     0.00000000000000
   26     0.00000000000000     0.04738659879249     0.00000000000000     0.00000000000000     0.00000000000000
   27    -0.02359879568245     0.00000000000000    -0.05956738749753    -0.00000000000000     0.00000000000000
   28     0.00000000000000     0.00000000000000    -0.00000000000000     0.01615401533119    -0.01020474570126
   29    -0.00000000000000    -0.03222831863613    -0.00000000000000    -0.00000000000000    -0.00000000000000
   30     0.00000000000000     0.14268384456818    -0.00000000000000     0.00000000000000     0.00000000000000
   31    -0.00000000000000    -0.00000000000000    -0.00000000000000    -0.00000000000000    -0.00000000000000
   32     0.00000000000000     0.04738659879249     0.00000000000000     0.00000000000000     0.00000000000000
   33     0.06240206377952    -0.00000000000000     0.16386622526153     0.00000000000000     0.00000000000000
   34     0.00000000000000     0.06179211449160     0.00000000000000     0.00000000000000     0.00000000000000
   35     0.00000000000000     0.00000000000000     0.00000000000000    -0.00000000000000     0.00000000000000
   36     0.02000140728173    -0.00000000000000    -0.00553764392711     0.00000000000000    -0.00000000000000
   37    -0.01807198302829    -0.00000000000000     0.10447493656107     0.00000000000000     0.00000000000000
   38    -0.00000000000000    -0.00000000000000    -0.00000000000000     0.03693302950107    -0.00338813654416
   39    -0.02359879568245     0.00000000000000    -0.05956738749753    -0.00000000000000     0.00000000000000
   40     0.00000000000000     0.06179211449160     0.00000000000000     0.00000000000000     0.00000000000000
   41    -0.06193098316937    -0.00000000000000     0.09784916320637     0.00000000000000     0.00000000000000
   42    -0.00000000000000     0.00000000000000     0.00000000000000    -0.01244971543813    -0.00990268071039
   43     0.00000000000000    -0.00000000000000     0.00000000000000    -0.01785692802719     0.01584503457830
   44    -0.00000000000000     0.00000000000000     0.00000000000000     0.05942938634120    -0.01349085825180
   45     0.07460265276102    -0.00000000000000     0.07894523834504     0.00000000000000     0.00000000000000
   46     0.00000000000000     0.00000000000000    -0.00000000000000     0.01615401533119    -0.01020474570126
   47     0.00000000000000     0.00000000000000     0.00000000000000    -0.00000000000000     0.00000000000000
   48    -0.00000000000000     0.00000000000000     0.00000000000000    -0.01244971543813    -0.00990268071039
   49     0.01096743130394    -0.00000000000000     0.07177361029446     0.00000000000000    -0.00000000000000

                16                  17                  18                  19                  20

    1    -0.00000000000000     0.81826669027199    -0.00000000000000    -0.00000000000000    -0.00000000000001
    2    -0.00000000000000     0.00434493147883    -0.00000000000000    -0.00000000000000    -0.00000000000000
    3    -0.01835303601158     0.00000000000000    -0.00387641550764    -0.00000000000000    -0.00338813654416
    4     0.00000000000000     0.00682156232331     0.00000000000000     0.00000000000000     0.00000000000000
    5     0.00000000000000    -0.00000000000000     0.00000000000000     0.00000000000000     0.00000000000000
    6     0.00000000000000     0.00004072998270    -0.00000000000000    -0.00000000000000    -0.00000000000000
    7    -0.02377264616113     0.00000000000000    -0.00564239884428     0.00000000000000    -0.00424090667953
    8    -0.00000000000000     0.00434493147883    -0.00000000000000    -0.00000000000000    -0.00000000000000
    9     0.00000000000000     0.65865773155337    -0.00000000000000    -0.00000000000000    -0.00000000000000
   10     0.14935208644407     0.00000000000000    -0.01542519470759     0.00000000000000    -0.04022952902872
   11     0.00000000000000    -0.00797444971184    -0.00000000000000    -0.00000000000000    -0.00000000000000
   12    -0.00000000000000    -0.00000000000000    -0.00000000000000    -0.00000000000000    -0.00000000000000
   13    -0.00000000000000     0.08011450655410    -0.00000000000000    -0.00000000000000    -0.00000000000000
   14     0.03430711611567     0.00000000000000     0.03480381894645    -0.00000000000000     0.03693302950107
   15    -0.01835303601158     0.00000000000000    -0.00387641550764    -0.00000000000000    -0.00338813654416
   16     0.14935208644407     0.00000000000000    -0.01542519470759     0.00000000000000    -0.04022952902872
   17     0.00000000000000     0.65038598637274    -0.00000000000000    -0.00000000000000    -0.00000000000000
   18    -0.01542519470759    -0.00000000000000     0.04483323929880    -0.00000000000000     0.02465032177195
   19     0.00000000000000    -0.00000000000000    -0.00000000000000     0.02999688521714    -0.00000000000000
   20    -0.04022952902872    -0.00000000000000     0.02465032177195    -0.00000000000000     0.06855922185639
   21    -0.00000000000000     0.09166858749061    -0.00000000000000    -0.00000000000000    -0.00000000000000
   22     0.00000000000000     0.00682156232331     0.00000000000000     0.00000000000000     0.00000000000000
   23     0.00000000000000    -0.00797444971184    -0.00000000000000    -0.00000000000000    -0.00000000000000
   24    -0.01542519470759    -0.00000000000000     0.04483323929880    -0.00000000000000     0.02465032177195
   25    -0.00000000000000     0.61248311467194    -0.00000000000000    -0.00000000000000    -0.00000000000000
   26    -0.00000000000000     0.00000000000000    -0.00000000000000    -0.00000000000000     0.00000000000000
   27    -0.00000000000000    -0.04120986998422     0.00000000000000     0.00000000000000     0.00000000000000
   28     0.07783775774451    -0.00000000000000     0.00846684774121     0.00000000000000    -0.04008945761296
   29     0.00000000000000    -0.00000000000000     0.00000000000000     0.00000000000000     0.00000000000000
   30    -0.00000000000000    -0.00000000000000    -0.00000000000000    -0.00000000000000    -0.00000000000000
   31     0.00000000000000    -0.00000000000000    -0.00000000000000     0.02999688521714    -0.00000000000000
   32    -0.00000000000000     0.00000000000000    -0.00000000000000    -0.00000000000000     0.00000000000000
   33    -0.00000000000000     0.64097975592195    -0.00000000000000    -0.00000000000000    -0.00000000000000
   34    -0.00000000000000    -0.00000000000000     0.00000000000000    -0.00000000000000     0.00000000000000
   35    -0.00000000000000    -0.00000000000000     0.00000000000000     0.02352025518308     0.00000000000000
   36     0.00000000000000     0.00004072998270    -0.00000000000000    -0.00000000000000    -0.00000000000000
   37    -0.00000000000000     0.08011450655410    -0.00000000000000    -0.00000000000000    -0.00000000000000
   38    -0.04022952902872    -0.00000000000000     0.02465032177195    -0.00000000000000     0.06855922185639
   39    -0.00000000000000    -0.04120986998422     0.00000000000000     0.00000000000000     0.00000000000000
   40    -0.00000000000000    -0.00000000000000     0.00000000000000    -0.00000000000000     0.00000000000000
   41    -0.00000000000000     0.57964073114776     0.00000000000000    -0.00000000000000     0.00000000000000
   42     0.10247912974417    -0.00000000000000    -0.04108531251026     0.00000000000000    -0.06297966763369
   43    -0.02377264616113     0.00000000000000    -0.00564239884428     0.00000000000000    -0.00424090667953
   44     0.03430711611567     0.00000000000000     0.03480381894645    -0.00000000000000     0.03693302950107
   45    -0.00000000000000     0.09166858749061    -0.00000000000000    -0.00000000000000    -0.00000000000000
   46     0.07783775774451    -0.00000000000000     0.00846684774121     0.00000000000000    -0.04008945761296
   47    -0.00000000000000    -0.00000000000000     0.00000000000000     0.02352025518308     0.00000000000000
   48     0.10247912974417    -0.00000000000000    -0.04108531251026     0.00000000000000    -0.06297966763369
   49     0.00000000000001     0.62268846372883    -0.00000000000000    -0.00000000000000    -0.00000000000001

                21                  22                  23                  24                  25

    1     0.35962670736051     0.18840033374972     0.11672110055334    -0.00000000000000     1.02230914375858
    2     0.00783918715486     0.02238188084874     0.00962346578077    -0.00000000000000     0.01457449643895
    3     0.00000000000000    -0.00000000000000     0.00000000000000    -0.00387641550764     0.00000000000000
    4    -0.00117466224451     0.02896846510865    -0.01912307423233     0.00000000000000    -0.01239160848920
    5    -0.00000000000000     0.00000000000000    -0.00000000000000     0.00000000000000    -0.00000000000000
    6     0.00756519396529     0.00182945322597     0.02000140728173    -0.00000000000000     0.02044135072743
    7     0.00000000000000     0.00000000000000     0.00000000000000    -0.00564239884428     0.00000000000000
    8     0.00783918715486     0.02238188084874     0.00962346578077    -0.00000000000000     0.01457449643895
    9     0.12849625215423     0.01762039580322    -0.01602922588367    -0.00000000000000     0.67972462802270
   10    -0.00000000000000     0.00000000000000     0.00000000000000    -0.01542519470759    -0.00000000000000
   11     0.07460265276102    -0.01912307423233     0.11991912227293    -0.00000000000000     0.10492020957455
   12    -0.00000000000000    -0.00000000000000     0.00000000000000    -0.00000000000000    -0.00000000000000
   13     0.07894523834504     0.01871724874473    -0.01807198302829    -0.00000000000000     0.09800974378705
   14     0.00000000000000     0.00000000000000    -0.00000000000000     0.03480381894645     0.00000000000000
   15     0.00000000000000    -0.00000000000000     0.00000000000000    -0.00387641550764     0.00000000000000
   16    -0.00000000000000     0.00000000000000     0.00000000000000    -0.01542519470759    -0.00000000000000
   17     0.09166858749061     0.00682156232331    -0.00797444971184    -0.00000000000000     0.61248311467194
   18    -0.00000000000000     0.00000000000000    -0.00000000000000     0.04483323929880    -0.00000000000000
   19    -0.00000000000000     0.00000000000000    -0.00000000000000    -0.00000000000000    -0.00000000000000
   20    -0.00000000000000     0.00000000000000    -0.00000000000000     0.02465032177195    -0.00000000000000
   21     0.14992006520779    -0.00117466224451     0.07460265276102    -0.00000000000000     0.16586940682975
   22    -0.00117466224451     0.02896846510865    -0.01912307423233     0.00000000000000    -0.01239160848920
   23     0.07460265276102    -0.01912307423233     0.11991912227293    -0.00000000000000     0.10492020957455
   24    -0.00000000000000     0.00000000000000    -0.00000000000000     0.04483323929880    -0.00000000000000
   25     0.16586940682975    -0.01239160848920     0.10492020957455    -0.00000000000000     0.81298568974912
   26     0.00000000000000    -0.00000000000000     0.00000000000000    -0.00000000000000     0.00000000000000
   27    -0.06937133775550    -0.00296261035828    -0.02359879568245     0.00000000000000    -0.11350670869871
   28    -0.00000000000000    -0.00000000000000     0.00000000000000     0.00846684774121    -0.00000000000000
   29    -0.00000000000000     0.00000000000000    -0.00000000000000     0.00000000000000    -0.00000000000000
   30    -0.00000000000000    -0.00000000000000     0.00000000000000    -0.00000000000000    -0.00000000000000
   31    -0.00000000000000     0.00000000000000    -0.00000000000000    -0.00000000000000    -0.00000000000000
   32     0.00000000000000    -0.00000000000000     0.00000000000000    -0.00000000000000     0.00000000000000
   33     0.18464820592103     0.00523703450946     0.06240206377952    -0.00000000000000     0.74165125688838
   34     0.00000000000000    -0.00000000000000     0.00000000000000     0.00000000000000     0.00000000000000
   35     0.00000000000000    -0.00000000000000     0.00000000000000     0.00000000000000    -0.00000000000000
   36     0.00756519396529     0.00182945322597     0.02000140728173    -0.00000000000000     0.02044135072743
   37     0.07894523834504     0.01871724874473    -0.01807198302829    -0.00000000000000     0.09800974378705
   38    -0.00000000000000     0.00000000000000    -0.00000000000000     0.02465032177195    -0.00000000000000
   39    -0.06937133775550    -0.00296261035828    -0.02359879568245     0.00000000000000    -0.11350670869871
   40     0.00000000000000    -0.00000000000000     0.00000000000000     0.00000000000000     0.00000000000000
   41     0.03559180174936     0.02236425822926    -0.06193098316937     0.00000000000000     0.55037656270326
   42    -0.00000000000000     0.00000000000000    -0.00000000000000    -0.04108531251026    -0.00000000000000
   43     0.00000000000000     0.00000000000000     0.00000000000000    -0.00564239884428     0.00000000000000
   44     0.00000000000000     0.00000000000000    -0.00000000000000     0.03480381894645     0.00000000000000
   45     0.14992006520779    -0.00117466224451     0.07460265276102    -0.00000000000000     0.16586940682975
   46    -0.00000000000000    -0.00000000000000     0.00000000000000     0.00846684774121    -0.00000000000000
   47     0.00000000000000    -0.00000000000000     0.00000000000000     0.00000000000000    -0.00000000000000
   48    -0.00000000000000     0.00000000000000    -0.00000000000000    -0.04108531251026    -0.00000000000000
   49     0.09193278378861     0.00430820586532     0.01096743130394    -0.00000000000000     0.61904530622677

                26                  27                  28                  29                  30

    1     0.00000000000000    -0.19919717039275    -0.00000000000000    -0.00000000000000    -0.00000000000000
    2    -0.00000000000000    -0.00167032980742    -0.00000000000000    -0.00000000000000    -0.00000000000000
    3     0.00000000000000     0.00000000000000    -0.01020474570126    -0.00000000000000     0.00000000000000
    4    -0.00000000000000    -0.00296261035828    -0.00000000000000     0.00000000000000    -0.00000000000000
    5    -0.01390834185154    -0.00000000000000    -0.00000000000000     0.02608188521221    -0.03222831863613
    6    -0.00000000000000     0.00046315409547     0.00000000000000     0.00000000000000    -0.00000000000000
    7    -0.00000000000000     0.00000000000000    -0.01396810555286     0.00000000000000    -0.00000000000000
    8    -0.00000000000000    -0.00167032980742    -0.00000000000000    -0.00000000000000    -0.00000000000000
    9     0.00000000000000    -0.08499709563208    -0.00000000000000    -0.00000000000000    -0.00000000000000
   10    -0.00000000000000    -0.00000000000000     0.07783775774451     0.00000000000000    -0.00000000000000
   11     0.00000000000000    -0.02359879568245     0.00000000000000    -0.00000000000000     0.00000000000000
   12     0.04738659879249     0.00000000000000     0.00000000000000    -0.03222831863613     0.14268384456818
   13     0.00000000000000    -0.05956738749753    -0.00000000000000    -0.00000000000000    -0.00000000000000
   14     0.00000000000000    -0.00000000000000     0.01615401533119    -0.00000000000000     0.00000000000000
   15     0.00000000000000     0.00000000000000    -0.01020474570126    -0.00000000000000     0.00000000000000
   16    -0.00000000000000    -0.00000000000000     0.07783775774451     0.00000000000000    -0.00000000000000
   17     0.00000000000000    -0.04120986998422    -0.00000000000000    -0.00000000000000    -0.00000000000000
   18    -0.00000000000000     0.00000000000000     0.00846684774121     0.00000000000000    -0.00000000000000
   19    -0.00000000000000     0.00000000000000     0.00000000000000     0.00000000000000    -0.00000000000000
   20     0.00000000000000     0.00000000000000    -0.04008945761296     0.00000000000000    -0.00000000000000
   21     0.00000000000000    -0.06937133775550    -0.00000000000000    -0.00000000000000    -0.00000000000000
   22    -0.00000000000000    -0.00296261035828    -0.00000000000000     0.00000000000000    -0.00000000000000
   23     0.00000000000000    -0.02359879568245     0.00000000000000    -0.00000000000000     0.00000000000000
   24    -0.00000000000000     0.00000000000000     0.00846684774121     0.00000000000000    -0.00000000000000
   25     0.00000000000000    -0.11350670869871    -0.00000000000000    -0.00000000000000    -0.00000000000000
   26     0.05852178771084     0.00000000000000    -0.00000000000000    -0.01390834185154     0.04738659879249
   27     0.00000000000000     0.05861701781766    -0.00000000000000    -0.00000000000000     0.00000000000000
   28    -0.00000000000000    -0.00000000000000     0.06816191509173    -0.00000000000000     0.00000000000000
   29    -0.01390834185154    -0.00000000000000    -0.00000000000000     0.02608188521221    -0.03222831863613
   30     0.04738659879249     0.00000000000000     0.00000000000000    -0.03222831863613     0.14268384456818
   31    -0.00000000000000     0.00000000000000     0.00000000000000     0.00000000000000    -0.00000000000000
   32     0.05852178771084     0.00000000000000    -0.00000000000000    -0.01390834185154     0.04738659879249
   33     0.00000000000000    -0.10312462583602    -0.00000000000000    -0.00000000000000    -0.00000000000000
   34     0.00466965656255    -0.00000000000000    -0.00000000000000    -0.01675835710798     0.06179211449160
   35     0.00000000000000    -0.00000000000000    -0.00000000000000    -0.00000000000000     0.00000000000000
   36    -0.00000000000000     0.00046315409547     0.00000000000000     0.00000000000000    -0.00000000000000
   37     0.00000000000000    -0.05956738749753    -0.00000000000000    -0.00000000000000    -0.00000000000000
   38     0.00000000000000     0.00000000000000    -0.04008945761296     0.00000000000000    -0.00000000000000
   39     0.00000000000000     0.05861701781766    -0.00000000000000    -0.00000000000000     0.00000000000000
   40     0.00466965656255    -0.00000000000000    -0.00000000000000    -0.01675835710798     0.06179211449160
   41     0.00000000000000    -0.04194887488595    -0.00000000000000    -0.00000000000000    -0.00000000000000
   42    -0.00000000000000    -0.00000000000000     0.05662860656337    -0.00000000000000     0.00000000000000
   43    -0.00000000000000     0.00000000000000    -0.01396810555286     0.00000000000000    -0.00000000000000
   44     0.00000000000000    -0.00000000000000     0.01615401533119    -0.00000000000000     0.00000000000000
   45     0.00000000000000    -0.06937133775550    -0.00000000000000    -0.00000000000000    -0.00000000000000
   46    -0.00000000000000    -0.00000000000000     0.06816191509173    -0.00000000000000     0.00000000000000
   47     0.00000000000000    -0.00000000000000    -0.00000000000000    -0.00000000000000     0.00000000000000
   48    -0.00000000000000    -0.00000000000000     0.05662860656337    -0.00000000000000     0.00000000000000
   49     0.00000000000000    -0.03742160938030     0.00000000000000    -0.00000000000000    -0.00000000000000

                31                  32                  33                  34                  35

    1    -0.00000000000000     0.00000000000000     1.11532658652446     0.00000000000000     0.00000000000000
    2    -0.00000000000000    -0.00000000000000     0.01155143579962    -0.00000000000000     0.00000000000000
    3    -0.00000000000000     0.00000000000000     0.00000000000000     0.00000000000000     0.00000000000000
    4     0.00000000000000    -0.00000000000000     0.00523703450946    -0.00000000000000    -0.00000000000000
    5     0.00000000000000    -0.01390834185154    -0.00000000000000    -0.01675835710798    -0.00000000000000
    6    -0.00000000000000    -0.00000000000000     0.00649869140034    -0.00000000000000     0.00000000000000
    7     0.00000000000000    -0.00000000000000     0.00000000000000    -0.00000000000000     0.00000000000000
    8    -0.00000000000000    -0.00000000000000     0.01155143579962    -0.00000000000000     0.00000000000000
    9    -0.00000000000000     0.00000000000000     0.74681589484140    -0.00000000000000    -0.00000000000000
   10     0.00000000000000    -0.00000000000000    -0.00000000000000    -0.00000000000000    -0.00000000000000
   11    -0.00000000000000     0.00000000000000     0.06240206377952     0.00000000000000     0.00000000000000
   12    -0.00000000000000     0.04738659879249    -0.00000000000000     0.06179211449160     0.00000000000000
   13    -0.00000000000000     0.00000000000000     0.16386622526153     0.00000000000000     0.00000000000000
   14    -0.00000000000000     0.00000000000000     0.00000000000000     0.00000000000000    -0.00000000000000
   15    -0.00000000000000     0.00000000000000     0.00000000000000     0.00000000000000     0.00000000000000
   16     0.00000000000000    -0.00000000000000    -0.00000000000000    -0.00000000000000    -0.00000000000000
   17    -0.00000000000000     0.00000000000000     0.64097975592195    -0.00000000000000    -0.00000000000000
   18    -0.00000000000000    -0.00000000000000    -0.00000000000000     0.00000000000000     0.00000000000000
   19     0.02999688521714    -0.00000000000000    -0.00000000000000    -0.00000000000000     0.02352025518308
   20    -0.00000000000000     0.00000000000000    -0.00000000000000     0.00000000000000     0.00000000000000
   21    -0.00000000000000     0.00000000000000     0.18464820592103     0.00000000000000     0.00000000000000
   22     0.00000000000000    -0.00000000000000     0.00523703450946    -0.00000000000000    -0.00000000000000
   23    -0.00000000000000     0.00000000000000     0.06240206377952     0.00000000000000     0.00000000000000
   24    -0.00000000000000    -0.00000000000000    -0.00000000000000     0.00000000000000     0.00000000000000
   25    -0.00000000000000     0.00000000000000     0.74165125688838     0.00000000000000    -0.00000000000000
   26    -0.00000000000000     0.05852178771084     0.00000000000000     0.00466965656255     0.00000000000000
   27     0.00000000000000     0.00000000000000    -0.10312462583602    -0.00000000000000    -0.00000000000000
   28     0.00000000000000    -0.00000000000000    -0.00000000000000    -0.00000000000000    -0.00000000000000
   29     0.00000000000000    -0.01390834185154    -0.00000000000000    -0.01675835710798    -0.00000000000000
   30    -0.00000000000000     0.04738659879249    -0.00000000000000     0.06179211449160     0.00000000000000
   31     0.02999688521714    -0.00000000000000    -0.00000000000000    -0.00000000000000     0.02352025518308
   32    -0.00000000000000     0.05852178771084     0.00000000000000     0.00466965656255     0.00000000000000
   33    -0.00000000000000     0.00000000000000     0.88015909337505    -0.00000000000000     0.00000000000000
   34    -0.00000000000000     0.00466965656255    -0.00000000000000     0.04036365351628     0.00000000000000
   35     0.02352025518308     0.00000000000000     0.00000000000000     0.00000000000000     0.02394468271465
   36    -0.00000000000000    -0.00000000000000     0.00649869140034    -0.00000000000000     0.00000000000000
   37    -0.00000000000000     0.00000000000000     0.16386622526153     0.00000000000000     0.00000000000000
   38    -0.00000000000000     0.00000000000000    -0.00000000000000     0.00000000000000     0.00000000000000
   39     0.00000000000000     0.00000000000000    -0.10312462583602    -0.00000000000000    -0.00000000000000
   40    -0.00000000000000     0.00466965656255    -0.00000000000000     0.04036365351628     0.00000000000000
   41    -0.00000000000000     0.00000000000000     0.59325447070859    -0.00000000000000    -0.00000000000000
   42     0.00000000000000    -0.00000000000000    -0.00000000000000    -0.00000000000000    -0.00000000000000
   43     0.00000000000000    -0.00000000000000     0.00000000000000    -0.00000000000000     0.00000000000000
   44    -0.00000000000000     0.00000000000000     0.00000000000000     0.00000000000000    -0.00000000000000
   45    -0.00000000000000     0.00000000000000     0.18464820592103     0.00000000000000     0.00000000000000
   46     0.00000000000000    -0.00000000000000    -0.00000000000000    -0.00000000000000    -0.00000000000000
   47     0.02352025518308     0.00000000000000     0.00000000000000     0.00000000000000     0.02394468271465
   48     0.00000000000000    -0.00000000000000    -0.00000000000000    -0.00000000000000    -0.00000000000000
   49    -0.00000000000000     0.00000000000000     0.63104936919283    -0.00000000000000    -0.00000000000000

                36                  37                  38                  39                  40

    1     0.25332831138477     0.32274772138558    -0.00000000000001    -0.19919717039275     0.00000000000000
    2     0.03804133216001     0.00684761210014    -0.00000000000000    -0.00167032980742    -0.00000000000000
    3    -0.00000000000000     0.00000000000000    -0.00338813654416     0.00000000000000     0.00000000000000
    4     0.00182945322597     0.01871724874473     0.00000000000000    -0.00296261035828    -0.00000000000000
    5     0.00000000000000    -0.00000000000000     0.00000000000000    -0.00000000000000    -0.01675835710798
    6     0.03364543965960    -0.00553764392711    -0.00000000000000     0.00046315409547    -0.00000000000000
    7     0.00000000000000     0.00000000000000    -0.00424090667953     0.00000000000000    -0.00000000000000
    8     0.03804133216001     0.00684761210014    -0.00000000000000    -0.00167032980742    -0.00000000000000
    9     0.00024705804794     0.14623687842746    -0.00000000000000    -0.08499709563208    -0.00000000000000
   10     0.00000000000000    -0.00000000000000    -0.04022952902872    -0.00000000000000    -0.00000000000000
   11     0.02000140728173    -0.01807198302829    -0.00000000000000    -0.02359879568245     0.00000000000000
   12    -0.00000000000000    -0.00000000000000    -0.00000000000000     0.00000000000000     0.06179211449160
   13    -0.00553764392711     0.10447493656107    -0.00000000000000    -0.05956738749753     0.00000000000000
   14     0.00000000000000     0.00000000000000     0.03693302950107    -0.00000000000000     0.00000000000000
   15    -0.00000000000000     0.00000000000000    -0.00338813654416     0.00000000000000     0.00000000000000
   16     0.00000000000000    -0.00000000000000    -0.04022952902872    -0.00000000000000    -0.00000000000000
   17     0.00004072998270     0.08011450655410    -0.00000000000000    -0.04120986998422    -0.00000000000000
   18    -0.00000000000000    -0.00000000000000     0.02465032177195     0.00000000000000     0.00000000000000
   19    -0.00000000000000    -0.00000000000000    -0.00000000000000     0.00000000000000    -0.00000000000000
   20    -0.00000000000000    -0.00000000000000     0.06855922185639     0.00000000000000     0.00000000000000
   21     0.00756519396529     0.07894523834504    -0.00000000000000    -0.06937133775550     0.00000000000000
   22     0.00182945322597     0.01871724874473     0.00000000000000    -0.00296261035828    -0.00000000000000
   23     0.02000140728173    -0.01807198302829    -0.00000000000000    -0.02359879568245     0.00000000000000
   24    -0.00000000000000    -0.00000000000000     0.02465032177195     0.00000000000000     0.00000000000000
   25     0.02044135072743     0.09800974378705    -0.00000000000000    -0.11350670869871     0.00000000000000
   26    -0.00000000000000     0.00000000000000     0.00000000000000     0.00000000000000     0.00466965656255
   27     0.00046315409547    -0.05956738749753     0.00000000000000     0.05861701781766    -0.00000000000000
   28     0.00000000000000    -0.00000000000000    -0.04008945761296    -0.00000000000000    -0.00000000000000
   29     0.00000000000000    -0.00000000000000     0.00000000000000    -0.00000000000000    -0.01675835710798
   30    -0.00000000000000    -0.00000000000000    -0.00000000000000     0.00000000000000     0.06179211449160
   31    -0.00000000000000    -0.00000000000000    -0.00000000000000     0.00000000000000    -0.00000000000000
   32    -0.00000000000000     0.00000000000000     0.00000000000000     0.00000000000000     0.00466965656255
   33     0.00649869140034     0.16386622526153    -0.00000000000000    -0.10312462583602    -0.00000000000000
   34    -0.00000000000000     0.00000000000000     0.00000000000000    -0.00000000000000     0.04036365351628
   35     0.00000000000000     0.00000000000000     0.00000000000000    -0.00000000000000     0.00000000000000
   36     0.03364543965960    -0.00553764392711    -0.00000000000000     0.00046315409547    -0.00000000000000
   37    -0.00553764392711     0.10447493656107    -0.00000000000000    -0.05956738749753     0.00000000000000
   38    -0.00000000000000    -0.00000000000000     0.06855922185639     0.00000000000000     0.00000000000000
   39     0.00046315409547    -0.05956738749753     0.00000000000000     0.05861701781766    -0.00000000000000
   40    -0.00000000000000     0.00000000000000     0.00000000000000    -0.00000000000000     0.04036365351628
   41    -0.00797190120807     0.09784916320637     0.00000000000000    -0.04194887488595    -0.00000000000000
   42    -0.00000000000000     0.00000000000000    -0.06297966763369    -0.00000000000000    -0.00000000000000
   43     0.00000000000000     0.00000000000000    -0.00424090667953     0.00000000000000    -0.00000000000000
   44     0.00000000000000     0.00000000000000     0.03693302950107    -0.00000000000000     0.00000000000000
   45     0.00756519396529     0.07894523834504    -0.00000000000000    -0.06937133775550     0.00000000000000
   46     0.00000000000000    -0.00000000000000    -0.04008945761296    -0.00000000000000    -0.00000000000000
   47     0.00000000000000     0.00000000000000     0.00000000000000    -0.00000000000000     0.00000000000000
   48    -0.00000000000000     0.00000000000000    -0.06297966763369    -0.00000000000000    -0.00000000000000
   49     0.00576121459683     0.07177361029446    -0.00000000000001    -0.03742160938030    -0.00000000000000

                41                  42                  43                  44                  45

    1     0.81135433846652    -0.00000000000000     0.00000000000001     0.00000000000001     0.35962670736051
    2     0.00676343593142    -0.00000000000000     0.00000000000000     0.00000000000000     0.00783918715486
    3     0.00000000000000    -0.00990268071039     0.01584503457830    -0.01349085825180     0.00000000000000
    4     0.02236425822926     0.00000000000000     0.00000000000000     0.00000000000000    -0.00117466224451
    5    -0.00000000000000    -0.00000000000000     0.00000000000000    -0.00000000000000    -0.00000000000000
    6    -0.00797190120807    -0.00000000000000     0.00000000000000     0.00000000000000     0.00756519396529
    7     0.00000000000000    -0.01303496932883     0.02228479041854    -0.01785692802719     0.00000000000000
    8     0.00676343593142    -0.00000000000000     0.00000000000000     0.00000000000000     0.00783918715486
    9     0.62298344234018    -0.00000000000000    -0.00000000000000     0.00000000000000     0.12849625215423
   10    -0.00000000000000     0.10247912974417    -0.02377264616113     0.03430711611567    -0.00000000000000
   11    -0.06193098316937    -0.00000000000000     0.00000000000000    -0.00000000000000     0.07460265276102
   12    -0.00000000000000     0.00000000000000    -0.00000000000000     0.00000000000000    -0.00000000000000
   13     0.09784916320637     0.00000000000000     0.00000000000000     0.00000000000000     0.07894523834504
   14     0.00000000000000    -0.01244971543813    -0.01785692802719     0.05942938634120     0.00000000000000
   15     0.00000000000000    -0.00990268071039     0.01584503457830    -0.01349085825180     0.00000000000000
   16    -0.00000000000000     0.10247912974417    -0.02377264616113     0.03430711611567    -0.00000000000000
   17     0.57964073114776    -0.00000000000000     0.00000000000000     0.00000000000000     0.09166858749061
   18     0.00000000000000    -0.04108531251026    -0.00564239884428     0.03480381894645    -0.00000000000000
   19    -0.00000000000000     0.00000000000000     0.00000000000000    -0.00000000000000    -0.00000000000000
   20     0.00000000000000    -0.06297966763369    -0.00424090667953     0.03693302950107    -0.00000000000000
   21     0.03559180174936    -0.00000000000000     0.00000000000000     0.00000000000000     0.14992006520779
   22     0.02236425822926     0.00000000000000     0.00000000000000     0.00000000000000    -0.00117466224451
   23    -0.06193098316937    -0.00000000000000     0.00000000000000    -0.00000000000000     0.07460265276102
   24     0.00000000000000    -0.04108531251026    -0.00564239884428     0.03480381894645    -0.00000000000000
   25     0.55037656270326    -0.00000000000000     0.00000000000000     0.00000000000000     0.16586940682975
   26     0.00000000000000    -0.00000000000000    -0.00000000000000     0.00000000000000     0.00000000000000
   27    -0.04194887488595    -0.00000000000000     0.00000000000000    -0.00000000000000    -0.06937133775550
   28    -0.00000000000000     0.05662860656337    -0.01396810555286     0.01615401533119    -0.00000000000000
   29    -0.00000000000000    -0.00000000000000     0.00000000000000    -0.00000000000000    -0.00000000000000
   30    -0.00000000000000     0.00000000000000    -0.00000000000000     0.00000000000000    -0.00000000000000
   31    -0.00000000000000     0.00000000000000     0.00000000000000    -0.00000000000000    -0.00000000000000
   32     0.00000000000000    -0.00000000000000    -0.00000000000000     0.00000000000000     0.00000000000000
   33     0.59325447070859    -0.00000000000000     0.00000000000000     0.00000000000000     0.18464820592103
   34    -0.00000000000000    -0.00000000000000    -0.00000000000000     0.00000000000000     0.00000000000000
   35    -0.00000000000000    -0.00000000000000     0.00000000000000    -0.00000000000000     0.00000000000000
   36    -0.00797190120807    -0.00000000000000     0.00000000000000     0.00000000000000     0.00756519396529
   37     0.09784916320637     0.00000000000000     0.00000000000000     0.00000000000000     0.07894523834504
   38     0.00000000000000    -0.06297966763369    -0.00424090667953     0.03693302950107    -0.00000000000000
   39    -0.04194887488595    -0.00000000000000     0.00000000000000    -0.00000000000000    -0.06937133775550
   40    -0.00000000000000    -0.00000000000000    -0.00000000000000     0.00000000000000     0.00000000000000
   41     0.60106591670571    -0.00000000000001     0.00000000000000     0.00000000000000     0.03559180174936
   42    -0.00000000000001     0.11571317638880    -0.01303496932883    -0.01244971543813    -0.00000000000000
   43     0.00000000000000    -0.01303496932883     0.02228479041854    -0.01785692802719     0.00000000000000
   44     0.00000000000000    -0.01244971543813    -0.01785692802719     0.05942938634120     0.00000000000000
   45     0.03559180174936    -0.00000000000000     0.00000000000000     0.00000000000000     0.14992006520779
   46    -0.00000000000000     0.05662860656337    -0.01396810555286     0.01615401533119    -0.00000000000000
   47    -0.00000000000000    -0.00000000000000     0.00000000000000    -0.00000000000000     0.00000000000000
   48    -0.00000000000001     0.11571317638880    -0.01303496932883    -0.01244971543813    -0.00000000000000
   49     0.57203126829276     0.00000000000000    -0.00000000000000     0.00000000000000     0.09193278378861

                46                  47                  48                  49

    1    -0.00000000000000     0.00000000000000    -0.00000000000000     0.88123756819202
    2    -0.00000000000000     0.00000000000000    -0.00000000000000     0.00966453700317
    3    -0.01020474570126     0.00000000000000    -0.00990268071039    -0.00000000000000
    4    -0.00000000000000    -0.00000000000000     0.00000000000000     0.00430820586532
    5    -0.00000000000000    -0.00000000000000    -0.00000000000000    -0.00000000000000
    6     0.00000000000000     0.00000000000000    -0.00000000000000     0.00576121459683
    7    -0.01396810555286     0.00000000000000    -0.01303496932883    -0.00000000000000
    8    -0.00000000000000     0.00000000000000    -0.00000000000000     0.00966453700317
    9    -0.00000000000000    -0.00000000000000    -0.00000000000000     0.63133656115809
   10     0.07783775774451    -0.00000000000000     0.10247912974417     0.00000000000001
   11     0.00000000000000     0.00000000000000    -0.00000000000000     0.01096743130394
   12     0.00000000000000     0.00000000000000     0.00000000000000    -0.00000000000000
   13    -0.00000000000000     0.00000000000000     0.00000000000000     0.07177361029446
   14     0.01615401533119    -0.00000000000000    -0.01244971543813     0.00000000000000
   15    -0.01020474570126     0.00000000000000    -0.00990268071039    -0.00000000000000
   16     0.07783775774451    -0.00000000000000     0.10247912974417     0.00000000000001
   17    -0.00000000000000    -0.00000000000000    -0.00000000000000     0.62268846372883
   18     0.00846684774121     0.00000000000000    -0.04108531251026    -0.00000000000000
   19     0.00000000000000     0.02352025518308     0.00000000000000    -0.00000000000000
   20    -0.04008945761296     0.00000000000000    -0.06297966763369    -0.00000000000001
   21    -0.00000000000000     0.00000000000000    -0.00000000000000     0.09193278378861
   22    -0.00000000000000    -0.00000000000000     0.00000000000000     0.00430820586532
   23     0.00000000000000     0.00000000000000    -0.00000000000000     0.01096743130394
   24     0.00846684774121     0.00000000000000    -0.04108531251026    -0.00000000000000
   25    -0.00000000000000    -0.00000000000000    -0.00000000000000     0.61904530622677
   26    -0.00000000000000     0.00000000000000    -0.00000000000000     0.00000000000000
   27    -0.00000000000000    -0.00000000000000    -0.00000000000000    -0.03742160938030
   28     0.06816191509173    -0.00000000000000     0.05662860656337     0.00000000000000
   29    -0.00000000000000    -0.00000000000000    -0.00000000000000    -0.00000000000000
   30     0.00000000000000     0.00000000000000     0.00000000000000    -0.00000000000000
   31     0.00000000000000     0.02352025518308     0.00000000000000    -0.00000000000000
   32    -0.00000000000000     0.00000000000000    -0.00000000000000     0.00000000000000
   33    -0.00000000000000     0.00000000000000    -0.00000000000000     0.63104936919283
   34    -0.00000000000000     0.00000000000000    -0.00000000000000    -0.00000000000000
   35    -0.00000000000000     0.02394468271465    -0.00000000000000    -0.00000000000000
   36     0.00000000000000     0.00000000000000    -0.00000000000000     0.00576121459683
   37    -0.00000000000000     0.00000000000000     0.00000000000000     0.07177361029446
   38    -0.04008945761296     0.00000000000000    -0.06297966763369    -0.00000000000001
   39    -0.00000000000000    -0.00000000000000    -0.00000000000000    -0.03742160938030
   40    -0.00000000000000     0.00000000000000    -0.00000000000000    -0.00000000000000
   41    -0.00000000000000    -0.00000000000000    -0.00000000000001     0.57203126829276
   42     0.05662860656337    -0.00000000000000     0.11571317638880     0.00000000000000
   43    -0.01396810555286     0.00000000000000    -0.01303496932883    -0.00000000000000
   44     0.01615401533119    -0.00000000000000    -0.01244971543813     0.00000000000000
   45    -0.00000000000000     0.00000000000000    -0.00000000000000     0.09193278378861
   46     0.06816191509173    -0.00000000000000     0.05662860656337     0.00000000000000
   47    -0.00000000000000     0.02394468271465    -0.00000000000000    -0.00000000000000
   48     0.05662860656337    -0.00000000000000     0.11571317638880     0.00000000000000
   49     0.00000000000000    -0.00000000000000     0.00000000000000     0.62859749405011




*** PSI4 exiting successfully. Buy a developer a beer!
