
Host: ed2

Timers On : Fri Mar 24 11:33:55 2017
Timers Off: Fri Mar 24 11:34:54 2017

Wall Time:       59.00 seconds

JK: (A|mn)  :       0.01u       0.00s   0.001780w      4 calls
JK: (A|Q)^-1/2:       0.08u       0.00s   0.094502w      4 calls
JK: (Q|mn)  :       0.00u       0.00s   0.000698w      4 calls
HF: Form H  :       0.00u       0.01s 0.00773800w      1 call
HF: Form S/X:       0.00u       0.00s 0.00008900w      1 call
HF: Guess   :       0.11u       0.00s 0.11587000w      1 call
SAD Guess   :       0.11u       0.00s 0.11006700w      1 call
JK: D       :       0.32u       0.06s   0.275496w 250018 calls
JK: USO2AO  :       0.35u       0.05s   0.246552w 250018 calls
JK: JK      :      50.30u       0.80s      49.78w 250018 calls
JK: J       :       3.45u       0.24s   3.238456w 250018 calls
JK: J1      :       1.48u       0.06s   1.388788w 500027 calls
JK: J2      :       1.64u       0.04s   1.527235w 500027 calls
JK: K       :      44.05u       0.46s      43.67w 250018 calls
JK: K1      :      27.29u       0.14s      27.08w 750030 calls
JK: K2      :      16.40u       0.09s      16.14w 500025 calls
JK: AO2USO  :       0.01u       0.00s   0.064460w 250018 calls
DIISManager::add_entry:       0.00u       0.00s   0.001552w     12 calls
DIISManager::extrapolate:       0.01u       0.00s   0.000288w     11 calls
DIISManager::extrapolate: bMatrix setup:       0.00u       0.00s   0.000065w     11 calls
DIISManager::extrapolate: bMatrix pseudoinverse:       0.00u       0.00s   0.000137w     11 calls
DIISManager::extrapolate: form new data:       0.00u       0.00s   0.000067w     11 calls
HF: Form G  :       0.00u       0.00s   0.000715w      9 calls
HF: Form F  :       0.00u       0.00s   0.000014w      9 calls
HF: DIIS    :       0.01u       0.00s   0.001839w      9 calls
HF: Form C  :       0.00u       0.00s   0.000225w      9 calls
HF: Form D  :       0.00u       0.00s   0.000004w      9 calls

***********************************************************

Host: ed2

Timers On : Fri Mar 24 12:10:42 2017
Timers Off: Fri Mar 24 12:11:40 2017

Wall Time:       58.00 seconds

JK: (A|mn)  :       0.01u       0.00s   0.001772w      4 calls
JK: (A|Q)^-1/2:       0.10u       0.00s   0.092910w      4 calls
JK: (Q|mn)  :       0.00u       0.00s   0.000672w      4 calls
HF: Form H  :       0.00u       0.00s 0.00795000w      1 call
HF: Form S/X:       0.00u       0.00s 0.00010800w      1 call
HF: Guess   :       0.12u       0.00s 0.11756000w      1 call
SAD Guess   :       0.11u       0.00s 0.11034700w      1 call
JK: D       :       0.34u       0.07s   0.283087w 250018 calls
JK: USO2AO  :       0.25u       0.03s   0.226683w 250018 calls
JK: JK      :      49.08u       0.78s      49.08w 250018 calls
JK: J       :       2.96u       0.26s   3.305935w 250018 calls
JK: J1      :       1.16u       0.03s   1.370382w 500027 calls
JK: J2      :       1.54u       0.07s   1.597935w 500027 calls
JK: K       :      43.55u       0.43s      42.98w 250018 calls
JK: K1      :      26.42u       0.15s      26.59w 750030 calls
JK: K2      :      16.85u       0.09s      15.96w 500025 calls
JK: AO2USO  :       0.00u       0.05s   0.062377w 250018 calls
DIISManager::add_entry:       0.00u       0.00s   0.001791w     12 calls
DIISManager::extrapolate:       0.00u       0.00s   0.000284w     11 calls
DIISManager::extrapolate: bMatrix setup:       0.00u       0.00s   0.000062w     11 calls
DIISManager::extrapolate: bMatrix pseudoinverse:       0.00u       0.00s   0.000138w     11 calls
DIISManager::extrapolate: form new data:       0.00u       0.00s   0.000065w     11 calls
HF: Form G  :       0.00u       0.00s   0.000720w      9 calls
HF: Form F  :       0.00u       0.00s   0.000016w      9 calls
HF: DIIS    :       0.00u       0.00s   0.002080w      9 calls
HF: Form C  :       0.00u       0.00s   0.000227w      9 calls
HF: Form D  :       0.00u       0.00s   0.000004w      9 calls

***********************************************************

Host: ed2

Timers On : Fri Mar 24 15:16:00 2017
Timers Off: Fri Mar 24 15:16:22 2017

Wall Time:       22.00 seconds

JK: (A|mn)  :       0.00u       0.00s   0.002129w      4 calls
JK: (A|Q)^-1/2:       0.10u       0.00s   0.095978w      4 calls
JK: (Q|mn)  :       0.00u       0.00s   0.000700w      4 calls
HF: Form H  :       0.00u       0.00s 0.00797200w      1 call
HF: Form S/X:       0.00u       0.00s 0.00021600w      1 call
HF: Guess   :       0.12u       0.00s 0.12391700w      1 call
SAD Guess   :       0.11u       0.00s 0.11216800w      1 call
JK: D       :       0.00u       0.00s   0.000737w    268 calls
JK: USO2AO  :       0.00u       0.00s   0.000900w    268 calls
JK: JK      :       0.07u       0.00s   0.059031w    268 calls
JK: J       :       0.00u       0.00s   0.004331w    268 calls
JK: J1      :       0.00u       0.00s   0.002041w    527 calls
JK: J2      :       0.00u       0.00s   0.001731w    527 calls
JK: K       :       0.07u       0.00s   0.047900w    268 calls
JK: K1      :       0.04u       0.00s   0.029887w    780 calls
JK: K2      :       0.03u       0.00s   0.017279w    525 calls
JK: AO2USO  :       0.00u       0.00s   0.000109w    268 calls
DIISManager::add_entry:       0.00u       0.00s   0.002031w     12 calls
DIISManager::extrapolate:       0.01u       0.00s   0.000874w     11 calls
DIISManager::extrapolate: bMatrix setup:       0.00u       0.00s   0.000191w     11 calls
DIISManager::extrapolate: bMatrix pseudoinverse:       0.00u       0.00s   0.000409w     11 calls
DIISManager::extrapolate: form new data:       0.01u       0.00s   0.000219w     11 calls
HF: Form G  :       0.00u       0.00s   0.001899w      9 calls
HF: Form F  :       0.00u       0.00s   0.000040w      9 calls
HF: DIIS    :       0.01u       0.00s   0.003017w      9 calls
HF: Form C  :       0.00u       0.00s   0.000677w      9 calls
HF: Form D  :       0.00u       0.00s   0.000018w      9 calls

***********************************************************

Host: ed2

Timers On : Tue Mar 28 14:58:10 2017
Timers Off: Tue Mar 28 14:58:11 2017

Wall Time:        1.00 seconds

JK: (A|mn)  :       0.00u       0.00s   0.001763w      4 calls
JK: (A|Q)^-1/2:       0.10u       0.00s   0.093221w      4 calls
JK: (Q|mn)  :       0.00u       0.00s   0.000676w      4 calls
HF: Form H  :       0.00u       0.00s 0.00769600w      1 call
HF: Form S/X:       0.00u       0.00s 0.00007600w      1 call
HF: Guess   :       0.12u       0.00s 0.11712400w      1 call
SAD Guess   :       0.11u       0.00s 0.11195700w      1 call
JK: D       :       0.00u       0.00s   0.000357w    268 calls
JK: USO2AO  :       0.00u       0.00s   0.000344w    268 calls
JK: JK      :       0.02u       0.00s   0.051648w    268 calls
JK: J       :       0.00u       0.00s   0.003375w    268 calls
JK: J1      :       0.00u       0.00s   0.001430w    527 calls
JK: J2      :       0.00u       0.00s   0.001576w    527 calls
JK: K       :       0.02u       0.00s   0.044971w    268 calls
JK: K1      :       0.01u       0.00s   0.027833w    780 calls
JK: K2      :       0.01u       0.00s   0.016704w    525 calls
JK: AO2USO  :       0.00u       0.00s   0.000073w    268 calls
DIISManager::add_entry:       0.00u       0.00s   0.001769w     12 calls
DIISManager::extrapolate:       0.00u       0.00s   0.000288w     11 calls
DIISManager::extrapolate: bMatrix setup:       0.00u       0.00s   0.000063w     11 calls
DIISManager::extrapolate: bMatrix pseudoinverse:       0.00u       0.00s   0.000137w     11 calls
DIISManager::extrapolate: form new data:       0.00u       0.00s   0.000067w     11 calls
HF: Form G  :       0.00u       0.00s   0.000720w      9 calls
HF: Form F  :       0.00u       0.00s   0.000014w      9 calls
HF: DIIS    :       0.00u       0.00s   0.002060w      9 calls
HF: Form C  :       0.00u       0.00s   0.000225w      9 calls
HF: Form D  :       0.00u       0.00s   0.000007w      9 calls

***********************************************************

Host: ed2

Timers On : Tue Mar 28 15:05:31 2017
Timers Off: Tue Mar 28 15:05:38 2017

Wall Time:        7.00 seconds

JK: (A|mn)  :       0.00u       0.00s   0.001781w      4 calls
JK: (A|Q)^-1/2:       0.08u       0.00s   0.093418w      4 calls
JK: (Q|mn)  :       0.01u       0.00s   0.000674w      4 calls
HF: Form H  :       0.00u       0.00s 0.00745500w      1 call
HF: Form S/X:       0.00u       0.00s 0.00009700w      1 call
HF: Guess   :       0.12u       0.00s 0.11561300w      1 call
SAD Guess   :       0.11u       0.00s 0.10957200w      1 call
JK: D       :       0.06u       0.01s   0.027428w  25018 calls
JK: USO2AO  :       0.03u       0.00s   0.026067w  25018 calls
JK: JK      :       4.79u       0.11s   4.983119w  25018 calls
JK: J       :       0.19u       0.02s   0.324122w  25018 calls
JK: J1      :       0.07u       0.00s   0.139029w  50027 calls
JK: J2      :       0.07u       0.02s   0.153627w  50027 calls
JK: K       :       4.28u       0.09s   4.381349w  25018 calls
JK: K1      :       2.58u       0.07s   2.715554w  75030 calls
JK: K2      :       1.68u       0.02s   1.623374w  50025 calls
JK: AO2USO  :       0.00u       0.00s   0.006211w  25018 calls
DIISManager::add_entry:       0.00u       0.01s   0.001785w     12 calls
DIISManager::extrapolate:       0.00u       0.00s   0.000288w     11 calls
DIISManager::extrapolate: bMatrix setup:       0.00u       0.00s   0.000063w     11 calls
DIISManager::extrapolate: bMatrix pseudoinverse:       0.00u       0.00s   0.000137w     11 calls
DIISManager::extrapolate: form new data:       0.00u       0.00s   0.000067w     11 calls
HF: Form G  :       0.00u       0.00s   0.000708w      9 calls
HF: Form F  :       0.00u       0.00s   0.000015w      9 calls
HF: DIIS    :       0.00u       0.01s   0.002079w      9 calls
HF: Form C  :       0.00u       0.00s   0.000225w      9 calls
HF: Form D  :       0.00u       0.00s   0.000005w      9 calls

***********************************************************

Host: ed2

Timers On : Tue Mar 28 15:46:23 2017
Timers Off: Tue Mar 28 15:46:24 2017

Wall Time:        1.00 seconds


***********************************************************

Host: ed2

Timers On : Tue Mar 28 19:11:15 2017
Timers Off: Tue Mar 28 19:11:38 2017

Wall Time:       23.00 seconds

JK: (A|mn)  :       0.00u       0.00s   0.000213w      3 calls
JK: (A|Q)^-1/2:       0.06u       0.00s   0.056440w      3 calls
JK: (Q|mn)  :       0.00u       0.00s   0.000021w      3 calls
HF: Form H  :       0.00u       0.00s 0.00762200w      1 call
HF: Form S/X:       0.00u       0.00s 0.00007100w      1 call
HF: Guess   :       0.06u       0.00s 0.05690000w      1 call
SAD Guess   :       0.05u       0.00s 0.05129400w      1 call
JK: D       :       0.01u       0.01s   0.013918w  25010 calls
JK: USO2AO  :       0.00u       0.02s   0.022570w  25010 calls
JK: JK      :       0.24u       0.13s   0.461293w  25010 calls
JK: J       :       0.04u       0.02s   0.076426w  25010 calls
JK: J1      :       0.01u       0.00s   0.027057w  50017 calls
JK: J2      :       0.02u       0.01s   0.021497w  50017 calls
JK: K       :       0.08u       0.07s   0.185562w  25010 calls
JK: K1      :       0.07u       0.04s   0.119831w  75020 calls
JK: K2      :       0.01u       0.01s   0.026870w  50015 calls
JK: AO2USO  :       0.00u       0.00s   0.006616w  25010 calls
DIISManager::add_entry:       0.00u       0.00s   0.001614w      4 calls
DIISManager::extrapolate:       0.00u       0.00s   0.000055w      3 calls
DIISManager::extrapolate: bMatrix setup:       0.00u       0.00s   0.000006w      3 calls
DIISManager::extrapolate: bMatrix pseudoinverse:       0.00u       0.00s   0.000025w      3 calls
DIISManager::extrapolate: form new data:       0.00u       0.00s   0.000019w      3 calls
HF: Form G  :       0.00u       0.00s   0.000080w      3 calls
HF: Form F  :       0.00u       0.00s   0.000006w      3 calls
HF: DIIS    :       0.00u       0.00s   0.001647w      3 calls
HF: Form C  :       0.00u       0.00s   0.000045w      3 calls
HF: Form D  :       0.00u       0.00s   0.000000w      3 calls

***********************************************************

Host: ed2

Timers On : Tue Mar 28 19:12:32 2017
Timers Off: Tue Mar 28 19:12:55 2017

Wall Time:       23.00 seconds

JK: (A|mn)  :       0.00u       0.00s   0.000213w      3 calls
JK: (A|Q)^-1/2:       0.06u       0.00s   0.057171w      3 calls
JK: (Q|mn)  :       0.00u       0.00s   0.000022w      3 calls
HF: Form H  :       0.00u       0.00s 0.00789000w      1 call
HF: Form S/X:       0.00u       0.00s 0.00008900w      1 call
HF: Guess   :       0.06u       0.00s 0.05983500w      1 call
SAD Guess   :       0.05u       0.00s 0.05238400w      1 call
JK: D       :       0.00u       0.01s   0.013910w  25010 calls
JK: USO2AO  :       0.00u       0.00s   0.023331w  25010 calls
JK: JK      :       0.20u       0.10s   0.459440w  25010 calls
JK: J       :       0.04u       0.03s   0.075377w  25010 calls
JK: J1      :       0.00u       0.00s   0.026189w  50017 calls
JK: J2      :       0.02u       0.03s   0.021087w  50017 calls
JK: K       :       0.03u       0.02s   0.185692w  25010 calls
JK: K1      :       0.01u       0.01s   0.118738w  75020 calls
JK: K2      :       0.01u       0.00s   0.027467w  50015 calls
JK: AO2USO  :       0.01u       0.01s   0.006538w  25010 calls
DIISManager::add_entry:       0.00u       0.00s   0.001457w      4 calls
DIISManager::extrapolate:       0.00u       0.00s   0.000055w      3 calls
DIISManager::extrapolate: bMatrix setup:       0.00u       0.00s   0.000006w      3 calls
DIISManager::extrapolate: bMatrix pseudoinverse:       0.00u       0.00s   0.000024w      3 calls
DIISManager::extrapolate: form new data:       0.00u       0.00s   0.000018w      3 calls
HF: Form G  :       0.00u       0.00s   0.000093w      3 calls
HF: Form F  :       0.00u       0.00s   0.000006w      3 calls
HF: DIIS    :       0.00u       0.00s   0.001491w      3 calls
HF: Form C  :       0.00u       0.00s   0.000045w      3 calls
HF: Form D  :       0.00u       0.00s   0.000001w      3 calls

***********************************************************

Host: ed2

Timers On : Tue Mar 28 19:22:19 2017
Timers Off: Tue Mar 28 19:22:43 2017

Wall Time:       24.00 seconds

JK: (A|mn)  :       0.00u       0.00s   0.000239w      3 calls
JK: (A|Q)^-1/2:       0.06u       0.00s   0.057480w      3 calls
JK: (Q|mn)  :       0.00u       0.00s   0.000021w      3 calls
HF: Form H  :       0.00u       0.00s 0.23791200w      1 call
HF: Form S/X:       0.00u       0.00s 0.00012400w      1 call
HF: Guess   :       0.07u       0.00s 0.06453900w      1 call
SAD Guess   :       0.06u       0.00s 0.05635500w      1 call
JK: D       :       0.00u       0.00s   0.012897w  25010 calls
JK: USO2AO  :       0.00u       0.00s   0.024398w  25010 calls
JK: JK      :       0.08u       0.11s   0.462334w  25010 calls
JK: J       :       0.00u       0.05s   0.075306w  25010 calls
JK: J1      :       0.00u       0.02s   0.026648w  50017 calls
JK: J2      :       0.00u       0.01s   0.021614w  50017 calls
JK: K       :       0.04u       0.02s   0.187990w  25010 calls
JK: K1      :       0.02u       0.01s   0.121388w  75020 calls
JK: K2      :       0.02u       0.00s   0.027517w  50015 calls
JK: AO2USO  :       0.01u       0.00s   0.006224w  25010 calls
DIISManager::add_entry:       0.00u       0.00s   0.001735w      4 calls
DIISManager::extrapolate:       0.00u       0.00s   0.000055w      3 calls
DIISManager::extrapolate: bMatrix setup:       0.00u       0.00s   0.000006w      3 calls
DIISManager::extrapolate: bMatrix pseudoinverse:       0.00u       0.00s   0.000025w      3 calls
DIISManager::extrapolate: form new data:       0.00u       0.00s   0.000019w      3 calls
HF: Form G  :       0.00u       0.00s   0.000082w      3 calls
HF: Form F  :       0.00u       0.00s   0.000005w      3 calls
HF: DIIS    :       0.00u       0.00s   0.001768w      3 calls
HF: Form C  :       0.00u       0.00s   0.000047w      3 calls
HF: Form D  :       0.00u       0.00s   0.000001w      3 calls

***********************************************************

Host: ed2

Timers On : Tue Mar 28 19:31:38 2017
Timers Off: Tue Mar 28 19:32:01 2017

Wall Time:       23.00 seconds

JK: (A|mn)  :       0.00u       0.00s   0.000178w      3 calls
JK: (A|Q)^-1/2:       0.05u       0.00s   0.055148w      3 calls
JK: (Q|mn)  :       0.00u       0.00s   0.000021w      3 calls
HF: Form H  :       0.00u       0.00s 0.00748800w      1 call
HF: Form S/X:       0.00u       0.00s 0.00008900w      1 call
HF: Guess   :       0.06u       0.00s 0.05662700w      1 call
SAD Guess   :       0.05u       0.00s 0.04861600w      1 call
JK: D       :       0.01u       0.00s   0.012314w  25010 calls
JK: USO2AO  :       0.03u       0.01s   0.022358w  25010 calls
JK: JK      :       0.24u       0.02s   0.439838w  25010 calls
JK: J       :       0.03u       0.00s   0.072050w  25010 calls
JK: J1      :       0.02u       0.00s   0.025358w  50017 calls
JK: J2      :       0.01u       0.00s   0.020302w  50017 calls
JK: K       :       0.13u       0.01s   0.178150w  25010 calls
JK: K1      :       0.10u       0.00s   0.113713w  75020 calls
JK: K2      :       0.02u       0.01s   0.026687w  50015 calls
JK: AO2USO  :       0.00u       0.00s   0.006831w  25010 calls
DIISManager::add_entry:       0.00u       0.00s   0.001710w      4 calls
DIISManager::extrapolate:       0.00u       0.00s   0.000048w      3 calls
DIISManager::extrapolate: bMatrix setup:       0.00u       0.00s   0.000005w      3 calls
DIISManager::extrapolate: bMatrix pseudoinverse:       0.00u       0.00s   0.000022w      3 calls
DIISManager::extrapolate: form new data:       0.00u       0.00s   0.000013w      3 calls
HF: Form G  :       0.00u       0.00s   0.000079w      3 calls
HF: Form F  :       0.00u       0.00s   0.000005w      3 calls
HF: DIIS    :       0.00u       0.00s   0.001740w      3 calls
HF: Form C  :       0.00u       0.00s   0.000054w      3 calls
HF: Form D  :       0.00u       0.00s   0.000002w      3 calls

***********************************************************

Host: ed2

Timers On : Wed Mar 29 13:10:37 2017
Timers Off: Wed Mar 29 13:11:00 2017

Wall Time:       23.00 seconds

JK: (A|mn)  :       0.00u       0.00s   0.000222w      3 calls
JK: (A|Q)^-1/2:       0.06u       0.00s   0.057882w      3 calls
JK: (Q|mn)  :       0.00u       0.00s   0.000021w      3 calls
HF: Form H  :       0.00u       0.00s 0.00737700w      1 call
HF: Form S/X:       0.00u       0.00s 0.00008500w      1 call
HF: Guess   :       0.05u       0.00s 0.05463500w      1 call
SAD Guess   :       0.05u       0.00s 0.04902900w      1 call
JK: D       :       0.01u       0.00s   0.013576w  25010 calls
JK: USO2AO  :       0.03u       0.01s   0.022834w  25010 calls
JK: JK      :       0.25u       0.13s   0.455956w  25010 calls
JK: J       :       0.06u       0.03s   0.075533w  25010 calls
JK: J1      :       0.01u       0.00s   0.026498w  50017 calls
JK: J2      :       0.01u       0.02s   0.021400w  50017 calls
JK: K       :       0.09u       0.05s   0.185460w  25010 calls
JK: K1      :       0.05u       0.04s   0.119022w  75020 calls
JK: K2      :       0.02u       0.01s   0.027944w  50015 calls
JK: AO2USO  :       0.01u       0.00s   0.006649w  25010 calls
DIISManager::add_entry:       0.00u       0.00s   0.001404w      4 calls
DIISManager::extrapolate:       0.00u       0.00s   0.000057w      3 calls
DIISManager::extrapolate: bMatrix setup:       0.00u       0.00s   0.000005w      3 calls
DIISManager::extrapolate: bMatrix pseudoinverse:       0.00u       0.00s   0.000025w      3 calls
DIISManager::extrapolate: form new data:       0.00u       0.00s   0.000020w      3 calls
HF: Form G  :       0.00u       0.00s   0.000083w      3 calls
HF: Form F  :       0.00u       0.00s   0.000004w      3 calls
HF: DIIS    :       0.00u       0.00s   0.001436w      3 calls
HF: Form C  :       0.00u       0.00s   0.000058w      3 calls
HF: Form D  :       0.00u       0.00s   0.000002w      3 calls

***********************************************************

Host: ed2

Timers On : Wed Mar 29 13:14:18 2017
Timers Off: Wed Mar 29 13:14:42 2017

Wall Time:       24.00 seconds

JK: (A|mn)  :       0.00u       0.00s   0.000207w      3 calls
JK: (A|Q)^-1/2:       0.06u       0.00s   0.056859w      3 calls
JK: (Q|mn)  :       0.00u       0.00s   0.000021w      3 calls
HF: Form H  :       0.00u       0.00s 0.00820600w      1 call
HF: Form S/X:       0.00u       0.00s 0.00014100w      1 call
HF: Guess   :       0.06u       0.00s 0.06178000w      1 call
SAD Guess   :       0.05u       0.00s 0.05044400w      1 call
JK: D       :       0.01u       0.00s   0.013769w  25010 calls
JK: USO2AO  :       0.01u       0.01s   0.024160w  25010 calls
JK: JK      :       0.24u       0.17s   0.469184w  25010 calls
JK: J       :       0.03u       0.05s   0.077719w  25010 calls
JK: J1      :       0.01u       0.02s   0.027727w  50017 calls
JK: J2      :       0.01u       0.00s   0.021516w  50017 calls
JK: K       :       0.10u       0.07s   0.191828w  25010 calls
JK: K1      :       0.09u       0.03s   0.122907w  75020 calls
JK: K2      :       0.01u       0.01s   0.028546w  50015 calls
JK: AO2USO  :       0.00u       0.00s   0.006701w  25010 calls
DIISManager::add_entry:       0.00u       0.00s   0.001740w      4 calls
DIISManager::extrapolate:       0.00u       0.00s   0.000056w      3 calls
DIISManager::extrapolate: bMatrix setup:       0.00u       0.00s   0.000006w      3 calls
DIISManager::extrapolate: bMatrix pseudoinverse:       0.00u       0.00s   0.000025w      3 calls
DIISManager::extrapolate: form new data:       0.00u       0.00s   0.000018w      3 calls
HF: Form G  :       0.00u       0.00s   0.000093w      3 calls
HF: Form F  :       0.00u       0.00s   0.000004w      3 calls
HF: DIIS    :       0.00u       0.00s   0.001785w      3 calls
HF: Form C  :       0.00u       0.00s   0.000046w      3 calls
HF: Form D  :       0.00u       0.00s   0.000003w      3 calls

***********************************************************

Host: ed2

Timers On : Wed Mar 29 13:35:48 2017
Timers Off: Wed Mar 29 13:36:12 2017

Wall Time:       24.00 seconds

JK: (A|mn)  :       0.00u       0.00s   0.000255w      3 calls
JK: (A|Q)^-1/2:       0.06u       0.00s   0.057620w      3 calls
JK: (Q|mn)  :       0.00u       0.00s   0.000021w      3 calls
HF: Form H  :       0.01u       0.00s 0.00738300w      1 call
HF: Form S/X:       0.00u       0.00s 0.00009700w      1 call
HF: Guess   :       0.05u       0.00s 0.05834600w      1 call
SAD Guess   :       0.05u       0.00s 0.05017700w      1 call
JK: D       :       0.00u       0.01s   0.014621w  25010 calls
JK: USO2AO  :       0.01u       0.01s   0.024090w  25010 calls
JK: JK      :       0.17u       0.12s   0.467769w  25010 calls
JK: J       :       0.05u       0.04s   0.076939w  25010 calls
JK: J1      :       0.02u       0.01s   0.026982w  50017 calls
JK: J2      :       0.01u       0.01s   0.021364w  50017 calls
JK: K       :       0.08u       0.06s   0.188361w  25010 calls
JK: K1      :       0.04u       0.02s   0.120877w  75020 calls
JK: K2      :       0.02u       0.01s   0.027895w  50015 calls
JK: AO2USO  :       0.00u       0.00s   0.006881w  25010 calls
DIISManager::add_entry:       0.00u       0.01s   0.001800w      4 calls
DIISManager::extrapolate:       0.00u       0.00s   0.000056w      3 calls
DIISManager::extrapolate: bMatrix setup:       0.00u       0.00s   0.000006w      3 calls
DIISManager::extrapolate: bMatrix pseudoinverse:       0.00u       0.00s   0.000026w      3 calls
DIISManager::extrapolate: form new data:       0.00u       0.00s   0.000020w      3 calls
HF: Form G  :       0.00u       0.00s   0.000082w      3 calls
HF: Form F  :       0.00u       0.00s   0.000004w      3 calls
HF: DIIS    :       0.00u       0.01s   0.001834w      3 calls
HF: Form C  :       0.00u       0.00s   0.000046w      3 calls
HF: Form D  :       0.00u       0.00s   0.000003w      3 calls

***********************************************************

Host: ed2

Timers On : Wed Mar 29 14:29:18 2017
Timers Off: Wed Mar 29 14:29:40 2017

Wall Time:       22.00 seconds

JK: (A|mn)  :       0.00u       0.00s   0.000181w      3 calls
JK: (A|Q)^-1/2:       0.06u       0.00s   0.055428w      3 calls
JK: (Q|mn)  :       0.00u       0.00s   0.000021w      3 calls
HF: Form H  :       0.00u       0.00s 0.00778800w      1 call
HF: Form S/X:       0.00u       0.00s 0.00006100w      1 call
HF: Guess   :       0.06u       0.00s 0.05733600w      1 call
SAD Guess   :       0.05u       0.00s 0.04989100w      1 call
JK: D       :       0.00u       0.01s   0.013670w  25010 calls
JK: USO2AO  :       0.01u       0.00s   0.022181w  25010 calls
JK: JK      :       0.22u       0.12s   0.440107w  25010 calls
JK: J       :       0.01u       0.01s   0.073693w  25010 calls
JK: J1      :       0.01u       0.00s   0.025572w  50017 calls
JK: J2      :       0.00u       0.00s   0.020923w  50017 calls
JK: K       :       0.12u       0.06s   0.179586w  25010 calls
JK: K1      :       0.06u       0.03s   0.115452w  75020 calls
JK: K2      :       0.02u       0.00s   0.026033w  50015 calls
JK: AO2USO  :       0.00u       0.02s   0.006320w  25010 calls
DIISManager::add_entry:       0.00u       0.00s   0.001492w      4 calls
DIISManager::extrapolate:       0.00u       0.00s   0.000048w      3 calls
DIISManager::extrapolate: bMatrix setup:       0.00u       0.00s   0.000006w      3 calls
DIISManager::extrapolate: bMatrix pseudoinverse:       0.00u       0.00s   0.000022w      3 calls
DIISManager::extrapolate: form new data:       0.00u       0.00s   0.000012w      3 calls
HF: Form G  :       0.00u       0.00s   0.000076w      3 calls
HF: Form F  :       0.00u       0.00s   0.000003w      3 calls
HF: DIIS    :       0.00u       0.00s   0.001522w      3 calls
HF: Form C  :       0.00u       0.00s   0.000042w      3 calls
HF: Form D  :       0.00u       0.00s   0.000003w      3 calls

***********************************************************

Host: ed2

Timers On : Wed Mar 29 15:19:06 2017
Timers Off: Wed Mar 29 15:19:29 2017

Wall Time:       23.00 seconds

JK: (A|mn)  :       0.00u       0.00s   0.000223w      3 calls
JK: (A|Q)^-1/2:       0.06u       0.00s   0.057137w      3 calls
JK: (Q|mn)  :       0.00u       0.00s   0.000021w      3 calls
HF: Form H  :       0.00u       0.00s 0.00811300w      1 call
HF: Form S/X:       0.00u       0.00s 0.00013800w      1 call
HF: Guess   :       0.06u       0.00s 0.05920400w      1 call
SAD Guess   :       0.05u       0.00s 0.04847100w      1 call
JK: D       :       0.01u       0.02s   0.012914w  25010 calls
JK: USO2AO  :       0.01u       0.00s   0.023524w  25010 calls
JK: JK      :       0.28u       0.14s   0.456940w  25010 calls
JK: J       :       0.02u       0.01s   0.074403w  25010 calls
JK: J1      :       0.02u       0.00s   0.025890w  50017 calls
JK: J2      :       0.00u       0.00s   0.021169w  50017 calls
JK: K       :       0.16u       0.06s   0.185882w  25010 calls
JK: K1      :       0.14u       0.02s   0.118932w  75020 calls
JK: K2      :       0.01u       0.00s   0.028232w  50015 calls
JK: AO2USO  :       0.00u       0.00s   0.006640w  25010 calls
DIISManager::add_entry:       0.00u       0.00s   0.002032w      4 calls
DIISManager::extrapolate:       0.00u       0.00s   0.000054w      3 calls
DIISManager::extrapolate: bMatrix setup:       0.00u       0.00s   0.000006w      3 calls
DIISManager::extrapolate: bMatrix pseudoinverse:       0.00u       0.00s   0.000025w      3 calls
DIISManager::extrapolate: form new data:       0.00u       0.00s   0.000018w      3 calls
HF: Form G  :       0.00u       0.00s   0.000079w      3 calls
HF: Form F  :       0.00u       0.00s   0.000005w      3 calls
HF: DIIS    :       0.00u       0.00s   0.002062w      3 calls
HF: Form C  :       0.00u       0.00s   0.000043w      3 calls
HF: Form D  :       0.00u       0.00s   0.000001w      3 calls

***********************************************************

Host: ed2

Timers On : Wed Mar 29 15:26:30 2017
Timers Off: Wed Mar 29 15:26:53 2017

Wall Time:       23.00 seconds

JK: (A|mn)  :       0.00u       0.00s   0.000217w      3 calls
JK: (A|Q)^-1/2:       0.05u       0.00s   0.057231w      3 calls
JK: (Q|mn)  :       0.00u       0.00s   0.000020w      3 calls
HF: Form H  :       0.00u       0.00s 0.00761200w      1 call
HF: Form S/X:       0.00u       0.00s 0.00015000w      1 call
HF: Guess   :       0.06u       0.00s 0.05944100w      1 call
SAD Guess   :       0.05u       0.00s 0.04823400w      1 call
JK: D       :       0.03u       0.00s   0.013830w  25010 calls
JK: USO2AO  :       0.03u       0.02s   0.024621w  25010 calls
JK: JK      :       0.31u       0.13s   0.463721w  25010 calls
JK: J       :       0.04u       0.02s   0.075971w  25010 calls
JK: J1      :       0.00u       0.00s   0.026910w  50017 calls
JK: J2      :       0.01u       0.01s   0.021420w  50017 calls
JK: K       :       0.13u       0.06s   0.187188w  25010 calls
JK: K1      :       0.09u       0.04s   0.120525w  75020 calls
JK: K2      :       0.02u       0.00s   0.026908w  50015 calls
JK: AO2USO  :       0.00u       0.01s   0.006532w  25010 calls
DIISManager::add_entry:       0.00u       0.00s   0.001582w      4 calls
DIISManager::extrapolate:       0.00u       0.00s   0.000065w      3 calls
DIISManager::extrapolate: bMatrix setup:       0.00u       0.00s   0.000006w      3 calls
DIISManager::extrapolate: bMatrix pseudoinverse:       0.00u       0.00s   0.000025w      3 calls
DIISManager::extrapolate: form new data:       0.00u       0.00s   0.000029w      3 calls
HF: Form G  :       0.00u       0.00s   0.000083w      3 calls
HF: Form F  :       0.00u       0.00s   0.000005w      3 calls
HF: DIIS    :       0.00u       0.00s   0.001628w      3 calls
HF: Form C  :       0.00u       0.00s   0.000048w      3 calls
HF: Form D  :       0.00u       0.00s   0.000001w      3 calls

***********************************************************

Host: ed2

Timers On : Wed Mar 29 15:30:21 2017
Timers Off: Wed Mar 29 15:30:35 2017

Wall Time:       14.00 seconds

JK: (A|mn)  :       0.00u       0.00s   0.000222w      3 calls
JK: (A|Q)^-1/2:       0.06u       0.00s   0.057465w      3 calls
JK: (Q|mn)  :       0.00u       0.00s   0.000021w      3 calls
HF: Form H  :       0.00u       0.00s 0.00653800w      1 call
HF: Form S/X:       0.00u       0.00s 0.00008100w      1 call
HF: Guess   :       0.05u       0.00s 0.05272200w      1 call
SAD Guess   :       0.05u       0.00s 0.04858800w      1 call
JK: D       :       0.03u       0.00s   0.014207w  25010 calls
JK: USO2AO  :       0.01u       0.01s   0.023563w  25010 calls
JK: JK      :       0.22u       0.14s   0.456165w  25010 calls
JK: J       :       0.04u       0.05s   0.075113w  25010 calls
JK: J1      :       0.01u       0.00s   0.026632w  50017 calls
JK: J2      :       0.01u       0.03s   0.021166w  50017 calls
JK: K       :       0.06u       0.07s   0.183486w  25010 calls
JK: K1      :       0.03u       0.05s   0.118197w  75020 calls
JK: K2      :       0.01u       0.01s   0.026583w  50015 calls
JK: AO2USO  :       0.00u       0.00s   0.006394w  25010 calls
DIISManager::add_entry:       0.00u       0.00s   0.001625w      4 calls
DIISManager::extrapolate:       0.00u       0.00s   0.000056w      3 calls
DIISManager::extrapolate: bMatrix setup:       0.00u       0.00s   0.000007w      3 calls
DIISManager::extrapolate: bMatrix pseudoinverse:       0.00u       0.00s   0.000023w      3 calls
DIISManager::extrapolate: form new data:       0.00u       0.00s   0.000018w      3 calls
HF: Form G  :       0.00u       0.00s   0.000077w      3 calls
HF: Form F  :       0.00u       0.00s   0.000004w      3 calls
HF: DIIS    :       0.00u       0.00s   0.001655w      3 calls
HF: Form C  :       0.00u       0.00s   0.000042w      3 calls
HF: Form D  :       0.00u       0.00s   0.000002w      3 calls

***********************************************************

Host: ed2

Timers On : Wed Mar 29 15:39:23 2017
Timers Off: Wed Mar 29 15:39:48 2017

Wall Time:       25.00 seconds

JK: (A|mn)  :       0.00u       0.00s   0.000208w      3 calls
JK: (A|Q)^-1/2:       0.06u       0.00s   0.057364w      3 calls
JK: (Q|mn)  :       0.00u       0.00s   0.000021w      3 calls
HF: Form H  :       0.00u       0.01s 0.00794800w      1 call
HF: Form S/X:       0.00u       0.00s 0.00014200w      1 call
HF: Guess   :       0.06u       0.00s 0.06178400w      1 call
SAD Guess   :       0.06u       0.00s 0.05120900w      1 call
JK: D       :       0.00u       0.00s   0.014257w  25010 calls
JK: USO2AO  :       0.01u       0.01s   0.023345w  25010 calls
JK: JK      :       0.17u       0.05s   0.455646w  25010 calls
JK: J       :       0.04u       0.02s   0.074828w  25010 calls
JK: J1      :       0.02u       0.00s   0.026001w  50017 calls
JK: J2      :       0.02u       0.01s   0.021090w  50017 calls
JK: K       :       0.09u       0.03s   0.183649w  25010 calls
JK: K1      :       0.07u       0.02s   0.117346w  75020 calls
JK: K2      :       0.01u       0.01s   0.027485w  50015 calls
JK: AO2USO  :       0.01u       0.00s   0.006480w  25010 calls
DIISManager::add_entry:       0.00u       0.00s   0.001477w      4 calls
DIISManager::extrapolate:       0.00u       0.00s   0.000056w      3 calls
DIISManager::extrapolate: bMatrix setup:       0.00u       0.00s   0.000007w      3 calls
DIISManager::extrapolate: bMatrix pseudoinverse:       0.00u       0.00s   0.000025w      3 calls
DIISManager::extrapolate: form new data:       0.00u       0.00s   0.000018w      3 calls
HF: Form G  :       0.00u       0.00s   0.000092w      3 calls
HF: Form F  :       0.00u       0.00s   0.000004w      3 calls
HF: DIIS    :       0.00u       0.00s   0.001507w      3 calls
HF: Form C  :       0.00u       0.00s   0.000043w      3 calls
HF: Form D  :       0.00u       0.00s   0.000002w      3 calls

***********************************************************

Host: ed2

Timers On : Wed Mar 29 16:29:30 2017
Timers Off: Wed Mar 29 16:29:54 2017

Wall Time:       24.00 seconds

JK: (A|mn)  :       0.00u       0.00s   0.000190w      3 calls
JK: (A|Q)^-1/2:       0.05u       0.00s   0.056583w      3 calls
JK: (Q|mn)  :       0.00u       0.00s   0.000022w      3 calls
HF: Form H  :       0.00u       0.00s 0.00756200w      1 call
HF: Form S/X:       0.00u       0.00s 0.00006700w      1 call
HF: Guess   :       0.06u       0.00s 0.05755700w      1 call
SAD Guess   :       0.06u       0.00s 0.04964500w      1 call
JK: D       :       0.00u       0.01s   0.014604w  25010 calls
JK: USO2AO  :       0.00u       0.00s   0.023133w  25010 calls
JK: JK      :       0.27u       0.11s   0.449375w  25010 calls
JK: J       :       0.06u       0.03s   0.075051w  25010 calls
JK: J1      :       0.02u       0.01s   0.026214w  50017 calls
JK: J2      :       0.01u       0.02s   0.020965w  50017 calls
JK: K       :       0.08u       0.05s   0.181498w  25010 calls
JK: K1      :       0.07u       0.04s   0.116670w  75020 calls
JK: K2      :       0.00u       0.00s   0.026281w  50015 calls
JK: AO2USO  :       0.00u       0.00s   0.006412w  25010 calls
DIISManager::add_entry:       0.00u       0.00s   0.001454w      4 calls
DIISManager::extrapolate:       0.00u       0.00s   0.000049w      3 calls
DIISManager::extrapolate: bMatrix setup:       0.00u       0.00s   0.000006w      3 calls
DIISManager::extrapolate: bMatrix pseudoinverse:       0.00u       0.00s   0.000022w      3 calls
DIISManager::extrapolate: form new data:       0.00u       0.00s   0.000014w      3 calls
HF: Form G  :       0.00u       0.00s   0.000076w      3 calls
HF: Form F  :       0.00u       0.00s   0.000003w      3 calls
HF: DIIS    :       0.00u       0.00s   0.001483w      3 calls
HF: Form C  :       0.00u       0.00s   0.000042w      3 calls
HF: Form D  :       0.00u       0.00s   0.000003w      3 calls

***********************************************************

Host: ed2

Timers On : Wed Mar 29 16:30:24 2017
Timers Off: Wed Mar 29 16:30:37 2017

Wall Time:       13.00 seconds

JK: (A|mn)  :       0.00u       0.00s   0.000212w      3 calls
JK: (A|Q)^-1/2:       0.06u       0.00s   0.056046w      3 calls
JK: (Q|mn)  :       0.00u       0.00s   0.000020w      3 calls
HF: Form H  :       0.00u       0.00s 0.00757500w      1 call
HF: Form S/X:       0.00u       0.00s 0.00007000w      1 call
HF: Guess   :       0.06u       0.00s 0.05918000w      1 call
SAD Guess   :       0.05u       0.00s 0.05199200w      1 call
JK: D       :       0.02u       0.01s   0.012123w  25010 calls
JK: USO2AO  :       0.04u       0.00s   0.021603w  25010 calls
JK: JK      :       0.24u       0.12s   0.441306w  25010 calls
JK: J       :       0.01u       0.03s   0.073718w  25010 calls
JK: J1      :       0.00u       0.00s   0.025431w  50017 calls
JK: J2      :       0.00u       0.02s   0.020786w  50017 calls
JK: K       :       0.11u       0.07s   0.179598w  25010 calls
JK: K1      :       0.03u       0.04s   0.114725w  75020 calls
JK: K2      :       0.03u       0.00s   0.027160w  50015 calls
JK: AO2USO  :       0.01u       0.00s   0.006492w  25010 calls
DIISManager::add_entry:       0.00u       0.00s   0.001444w      4 calls
DIISManager::extrapolate:       0.00u       0.00s   0.000055w      3 calls
DIISManager::extrapolate: bMatrix setup:       0.00u       0.00s   0.000006w      3 calls
DIISManager::extrapolate: bMatrix pseudoinverse:       0.00u       0.00s   0.000025w      3 calls
DIISManager::extrapolate: form new data:       0.00u       0.00s   0.000019w      3 calls
HF: Form G  :       0.00u       0.00s   0.000079w      3 calls
HF: Form F  :       0.00u       0.00s   0.000005w      3 calls
HF: DIIS    :       0.00u       0.00s   0.001475w      3 calls
HF: Form C  :       0.00u       0.00s   0.000044w      3 calls
HF: Form D  :       0.00u       0.00s   0.000000w      3 calls

***********************************************************

Host: ed2

Timers On : Wed Mar 29 16:42:36 2017
Timers Off: Wed Mar 29 16:42:50 2017

Wall Time:       14.00 seconds

JK: (A|mn)  :       0.00u       0.00s   0.000214w      3 calls
JK: (A|Q)^-1/2:       0.06u       0.00s   0.058254w      3 calls
JK: (Q|mn)  :       0.00u       0.00s   0.000022w      3 calls
HF: Form H  :       0.00u       0.00s 0.00654900w      1 call
HF: Form S/X:       0.00u       0.00s 0.00010500w      1 call
HF: Guess   :       0.06u       0.00s 0.05981900w      1 call
SAD Guess   :       0.05u       0.00s 0.04939400w      1 call
JK: D       :       0.01u       0.00s   0.015496w  25010 calls
JK: USO2AO  :       0.02u       0.00s   0.025026w  25010 calls
JK: JK      :       0.21u       0.05s   0.492985w  25010 calls
JK: J       :       0.08u       0.00s   0.079298w  25010 calls
JK: J1      :       0.03u       0.00s   0.027527w  50017 calls
JK: J2      :       0.00u       0.00s   0.022456w  50017 calls
JK: K       :       0.05u       0.03s   0.197322w  25010 calls
JK: K1      :       0.03u       0.01s   0.127029w  75020 calls
JK: K2      :       0.00u       0.02s   0.028940w  50015 calls
JK: AO2USO  :       0.00u       0.00s   0.006569w  25010 calls
DIISManager::add_entry:       0.00u       0.00s   0.001488w      4 calls
DIISManager::extrapolate:       0.00u       0.00s   0.000056w      3 calls
DIISManager::extrapolate: bMatrix setup:       0.00u       0.00s   0.000006w      3 calls
DIISManager::extrapolate: bMatrix pseudoinverse:       0.00u       0.00s   0.000025w      3 calls
DIISManager::extrapolate: form new data:       0.00u       0.00s   0.000018w      3 calls
HF: Form G  :       0.00u       0.00s   0.000079w      3 calls
HF: Form F  :       0.00u       0.00s   0.000005w      3 calls
HF: DIIS    :       0.00u       0.00s   0.001518w      3 calls
HF: Form C  :       0.00u       0.00s   0.000044w      3 calls
HF: Form D  :       0.00u       0.00s   0.000002w      3 calls

***********************************************************

Host: ed2

Timers On : Wed Mar 29 16:44:32 2017
Timers Off: Wed Mar 29 16:45:06 2017

Wall Time:       34.00 seconds

JK: (A|mn)  :       0.00u       0.00s   0.000207w      3 calls
JK: (A|Q)^-1/2:       0.06u       0.00s   0.058929w      3 calls
JK: (Q|mn)  :       0.00u       0.00s   0.000021w      3 calls
HF: Form H  :       0.00u       0.00s 0.00721200w      1 call
HF: Form S/X:       0.00u       0.00s 0.00005300w      1 call
HF: Guess   :       0.06u       0.00s 0.06087500w      1 call
SAD Guess   :       0.05u       0.00s 0.05330200w      1 call
JK: D       :       0.00u       0.01s   0.017133w  25010 calls
JK: USO2AO  :       0.02u       0.00s   0.027849w  25010 calls
JK: JK      :       0.18u       0.16s   0.514812w  25010 calls
JK: J       :       0.04u       0.06s   0.082269w  25010 calls
JK: J1      :       0.02u       0.01s   0.028754w  50017 calls
JK: J2      :       0.00u       0.02s   0.023182w  50017 calls
JK: K       :       0.08u       0.05s   0.203975w  25010 calls
JK: K1      :       0.03u       0.04s   0.131285w  75020 calls
JK: K2      :       0.03u       0.00s   0.029230w  50015 calls
JK: AO2USO  :       0.01u       0.00s   0.007540w  25010 calls
DIISManager::add_entry:       0.00u       0.00s   0.002355w      4 calls
DIISManager::extrapolate:       0.00u       0.00s   0.000062w      3 calls
DIISManager::extrapolate: bMatrix setup:       0.00u       0.00s   0.000006w      3 calls
DIISManager::extrapolate: bMatrix pseudoinverse:       0.00u       0.00s   0.000028w      3 calls
DIISManager::extrapolate: form new data:       0.00u       0.00s   0.000020w      3 calls
HF: Form G  :       0.00u       0.00s   0.000091w      3 calls
HF: Form F  :       0.00u       0.00s   0.000004w      3 calls
HF: DIIS    :       0.00u       0.00s   0.002393w      3 calls
HF: Form C  :       0.00u       0.00s   0.000052w      3 calls
HF: Form D  :       0.00u       0.00s   0.000003w      3 calls

***********************************************************

Host: ed2

Timers On : Wed Mar 29 16:44:37 2017
Timers Off: Wed Mar 29 16:45:12 2017

Wall Time:       35.00 seconds

JK: (A|mn)  :       0.00u       0.00s   0.000200w      3 calls
JK: (A|Q)^-1/2:       0.06u       0.00s   0.059514w      3 calls
JK: (Q|mn)  :       0.00u       0.00s   0.000022w      3 calls
HF: Form H  :       0.00u       0.00s 0.00613900w      1 call
HF: Form S/X:       0.00u       0.00s 0.00005300w      1 call
HF: Guess   :       0.05u       0.00s 0.05476500w      1 call
SAD Guess   :       0.05u       0.00s 0.05062200w      1 call
JK: D       :       0.02u       0.01s   0.016103w  25010 calls
JK: USO2AO  :       0.02u       0.00s   0.026847w  25010 calls
JK: JK      :       0.22u       0.10s   0.512518w  25010 calls
JK: J       :       0.02u       0.02s   0.083165w  25010 calls
JK: J1      :       0.00u       0.00s   0.028821w  50017 calls
JK: J2      :       0.02u       0.00s   0.023199w  50017 calls
JK: K       :       0.06u       0.04s   0.202413w  25010 calls
JK: K1      :       0.06u       0.02s   0.128953w  75020 calls
JK: K2      :       0.00u       0.00s   0.029911w  50015 calls
JK: AO2USO  :       0.00u       0.00s   0.007391w  25010 calls
DIISManager::add_entry:       0.00u       0.00s   0.001326w      4 calls
DIISManager::extrapolate:       0.00u       0.00s   0.000056w      3 calls
DIISManager::extrapolate: bMatrix setup:       0.00u       0.00s   0.000006w      3 calls
DIISManager::extrapolate: bMatrix pseudoinverse:       0.00u       0.00s   0.000026w      3 calls
DIISManager::extrapolate: form new data:       0.00u       0.00s   0.000020w      3 calls
HF: Form G  :       0.00u       0.00s   0.000093w      3 calls
HF: Form F  :       0.00u       0.00s   0.000005w      3 calls
HF: DIIS    :       0.00u       0.00s   0.001356w      3 calls
HF: Form C  :       0.00u       0.00s   0.000043w      3 calls
HF: Form D  :       0.00u       0.00s   0.000001w      3 calls

***********************************************************

Host: ed2

Timers On : Wed Mar 29 16:53:19 2017
Timers Off: Wed Mar 29 16:53:45 2017

Wall Time:       26.00 seconds

JK: (A|mn)  :       0.00u       0.00s   0.000214w      3 calls
JK: (A|Q)^-1/2:       0.06u       0.00s   0.056809w      3 calls
JK: (Q|mn)  :       0.00u       0.00s   0.000021w      3 calls
HF: Form H  :       0.00u       0.00s 0.00724800w      1 call
HF: Form S/X:       0.00u       0.00s 0.00009700w      1 call
HF: Guess   :       0.06u       0.00s 0.05929500w      1 call
SAD Guess   :       0.05u       0.00s 0.05112800w      1 call
JK: D       :       0.02u       0.01s   0.013662w  25010 calls
JK: USO2AO  :       0.01u       0.00s   0.024620w  25010 calls
JK: JK      :       0.51u       0.10s   0.474951w  25010 calls
JK: J       :       0.09u       0.04s   0.075964w  25010 calls
JK: J1      :       0.03u       0.00s   0.026845w  50017 calls
JK: J2      :       0.01u       0.00s   0.021531w  50017 calls
JK: K       :       0.18u       0.04s   0.188569w  25010 calls
JK: K1      :       0.09u       0.01s   0.121256w  75020 calls
JK: K2      :       0.03u       0.00s   0.027193w  50015 calls
JK: AO2USO  :       0.00u       0.01s   0.007182w  25010 calls
DIISManager::add_entry:       0.00u       0.00s   0.001584w      4 calls
DIISManager::extrapolate:       0.00u       0.00s   0.000055w      3 calls
DIISManager::extrapolate: bMatrix setup:       0.00u       0.00s   0.000006w      3 calls
DIISManager::extrapolate: bMatrix pseudoinverse:       0.00u       0.00s   0.000026w      3 calls
DIISManager::extrapolate: form new data:       0.00u       0.00s   0.000018w      3 calls
HF: Form G  :       0.00u       0.00s   0.000080w      3 calls
HF: Form F  :       0.00u       0.00s   0.000005w      3 calls
HF: DIIS    :       0.00u       0.00s   0.001616w      3 calls
HF: Form C  :       0.00u       0.00s   0.000045w      3 calls
HF: Form D  :       0.00u       0.00s   0.000001w      3 calls

***********************************************************

Host: ed2

Timers On : Wed Mar 29 17:03:06 2017
Timers Off: Wed Mar 29 17:03:32 2017

Wall Time:       26.00 seconds

JK: (A|mn)  :       0.00u       0.00s   0.000216w      3 calls
JK: (A|Q)^-1/2:       0.06u       0.00s   0.057164w      3 calls
JK: (Q|mn)  :       0.00u       0.00s   0.000021w      3 calls
HF: Form H  :       0.00u       0.01s 0.00875000w      1 call
HF: Form S/X:       0.00u       0.00s 0.00006400w      1 call
HF: Guess   :       0.05u       0.00s 0.05706600w      1 call
SAD Guess   :       0.05u       0.00s 0.05061900w      1 call
JK: D       :       0.00u       0.01s   0.013947w  25010 calls
JK: USO2AO  :       0.01u       0.00s   0.023388w  25010 calls
JK: JK      :       0.23u       0.05s   0.467003w  25010 calls
JK: J       :       0.03u       0.01s   0.076010w  25010 calls
JK: J1      :       0.00u       0.00s   0.026411w  50017 calls
JK: J2      :       0.02u       0.00s   0.021553w  50017 calls
JK: K       :       0.10u       0.02s   0.187869w  25010 calls
JK: K1      :       0.09u       0.01s   0.119955w  75020 calls
JK: K2      :       0.00u       0.00s   0.027043w  50015 calls
JK: AO2USO  :       0.00u       0.00s   0.006651w  25010 calls
DIISManager::add_entry:       0.00u       0.00s   0.001546w      4 calls
DIISManager::extrapolate:       0.00u       0.00s   0.000057w      3 calls
DIISManager::extrapolate: bMatrix setup:       0.00u       0.00s   0.000006w      3 calls
DIISManager::extrapolate: bMatrix pseudoinverse:       0.00u       0.00s   0.000026w      3 calls
DIISManager::extrapolate: form new data:       0.00u       0.00s   0.000018w      3 calls
HF: Form G  :       0.00u       0.00s   0.000082w      3 calls
HF: Form F  :       0.00u       0.00s   0.000004w      3 calls
HF: DIIS    :       0.00u       0.00s   0.001579w      3 calls
HF: Form C  :       0.00u       0.00s   0.000047w      3 calls
HF: Form D  :       0.00u       0.00s   0.000001w      3 calls

***********************************************************

Host: ed2

Timers On : Wed Mar 29 17:05:45 2017
Timers Off: Wed Mar 29 17:06:13 2017

Wall Time:       28.00 seconds

JK: (A|mn)  :       0.00u       0.00s   0.000210w      3 calls
JK: (A|Q)^-1/2:       0.05u       0.00s   0.057724w      3 calls
JK: (Q|mn)  :       0.00u       0.00s   0.000021w      3 calls
HF: Form H  :       0.01u       0.00s 0.00725000w      1 call
HF: Form S/X:       0.00u       0.00s 0.00007500w      1 call
HF: Guess   :       0.05u       0.00s 0.05960900w      1 call
SAD Guess   :       0.05u       0.00s 0.05355700w      1 call
JK: D       :       0.01u       0.00s   0.013775w  25010 calls
JK: USO2AO  :       0.02u       0.00s   0.023512w  25010 calls
JK: JK      :       0.30u       0.09s   0.462893w  25010 calls
JK: J       :       0.05u       0.02s   0.076177w  25010 calls
JK: J1      :       0.00u       0.00s   0.026710w  50017 calls
JK: J2      :       0.03u       0.00s   0.021593w  50017 calls
JK: K       :       0.06u       0.05s   0.184054w  25010 calls
JK: K1      :       0.04u       0.02s   0.117265w  75020 calls
JK: K2      :       0.01u       0.01s   0.027514w  50015 calls
JK: AO2USO  :       0.00u       0.00s   0.006708w  25010 calls
DIISManager::add_entry:       0.01u       0.00s   0.001501w      4 calls
DIISManager::extrapolate:       0.00u       0.00s   0.000058w      3 calls
DIISManager::extrapolate: bMatrix setup:       0.00u       0.00s   0.000008w      3 calls
DIISManager::extrapolate: bMatrix pseudoinverse:       0.00u       0.00s   0.000025w      3 calls
DIISManager::extrapolate: form new data:       0.00u       0.00s   0.000019w      3 calls
HF: Form G  :       0.00u       0.00s   0.000081w      3 calls
HF: Form F  :       0.00u       0.00s   0.000004w      3 calls
HF: DIIS    :       0.01u       0.00s   0.001535w      3 calls
HF: Form C  :       0.00u       0.00s   0.000057w      3 calls
HF: Form D  :       0.00u       0.00s   0.000001w      3 calls

***********************************************************

Host: ed2

Timers On : Wed Mar 29 17:07:46 2017
Timers Off: Wed Mar 29 17:08:11 2017

Wall Time:       25.00 seconds

JK: (A|mn)  :       0.00u       0.00s   0.000204w      3 calls
JK: (A|Q)^-1/2:       0.06u       0.00s   0.058106w      3 calls
JK: (Q|mn)  :       0.00u       0.00s   0.000022w      3 calls
HF: Form H  :       0.00u       0.00s 0.00658700w      1 call
HF: Form S/X:       0.00u       0.00s 0.00007200w      1 call
HF: Guess   :       0.06u       0.00s 0.05671300w      1 call
SAD Guess   :       0.05u       0.00s 0.05061600w      1 call
JK: D       :       0.00u       0.01s   0.015026w  25010 calls
JK: USO2AO  :       0.03u       0.01s   0.024628w  25010 calls
JK: JK      :       0.28u       0.10s   0.475360w  25010 calls
JK: J       :       0.04u       0.07s   0.076535w  25010 calls
JK: J1      :       0.00u       0.03s   0.026617w  50017 calls
JK: J2      :       0.00u       0.01s   0.021909w  50017 calls
JK: K       :       0.12u       0.01s   0.190120w  25010 calls
JK: K1      :       0.07u       0.00s   0.121285w  75020 calls
JK: K2      :       0.00u       0.00s   0.026931w  50015 calls
JK: AO2USO  :       0.02u       0.00s   0.006649w  25010 calls
DIISManager::add_entry:       0.00u       0.00s   0.001554w      4 calls
DIISManager::extrapolate:       0.00u       0.00s   0.000055w      3 calls
DIISManager::extrapolate: bMatrix setup:       0.00u       0.00s   0.000005w      3 calls
DIISManager::extrapolate: bMatrix pseudoinverse:       0.00u       0.00s   0.000023w      3 calls
DIISManager::extrapolate: form new data:       0.00u       0.00s   0.000018w      3 calls
HF: Form G  :       0.00u       0.00s   0.000079w      3 calls
HF: Form F  :       0.00u       0.00s   0.000005w      3 calls
HF: DIIS    :       0.00u       0.00s   0.001587w      3 calls
HF: Form C  :       0.00u       0.00s   0.000044w      3 calls
HF: Form D  :       0.00u       0.00s   0.000001w      3 calls

***********************************************************

Host: ed2

Timers On : Wed Mar 29 17:16:29 2017
Timers Off: Wed Mar 29 17:16:55 2017

Wall Time:       26.00 seconds

JK: (A|mn)  :       0.00u       0.00s   0.000204w      3 calls
JK: (A|Q)^-1/2:       0.06u       0.00s   0.057116w      3 calls
JK: (Q|mn)  :       0.00u       0.00s   0.000022w      3 calls
HF: Form H  :       0.00u       0.00s 0.00806200w      1 call
HF: Form S/X:       0.00u       0.00s 0.00005300w      1 call
HF: Guess   :       0.06u       0.00s 0.05876300w      1 call
SAD Guess   :       0.05u       0.00s 0.05477600w      1 call
JK: D       :       0.01u       0.00s   0.014501w  25010 calls
JK: USO2AO  :       0.01u       0.00s   0.023989w  25010 calls
JK: JK      :       0.21u       0.10s   0.470623w  25010 calls
JK: J       :       0.01u       0.02s   0.076945w  25010 calls
JK: J1      :       0.00u       0.01s   0.027055w  50017 calls
JK: J2      :       0.01u       0.00s   0.021574w  50017 calls
JK: K       :       0.10u       0.06s   0.187772w  25010 calls
JK: K1      :       0.09u       0.02s   0.119813w  75020 calls
JK: K2      :       0.00u       0.02s   0.026894w  50015 calls
JK: AO2USO  :       0.00u       0.00s   0.006975w  25010 calls
DIISManager::add_entry:       0.00u       0.00s   0.001731w      4 calls
DIISManager::extrapolate:       0.00u       0.00s   0.000055w      3 calls
DIISManager::extrapolate: bMatrix setup:       0.00u       0.00s   0.000006w      3 calls
DIISManager::extrapolate: bMatrix pseudoinverse:       0.00u       0.00s   0.000025w      3 calls
DIISManager::extrapolate: form new data:       0.00u       0.00s   0.000019w      3 calls
HF: Form G  :       0.00u       0.00s   0.000082w      3 calls
HF: Form F  :       0.00u       0.00s   0.000005w      3 calls
HF: DIIS    :       0.00u       0.00s   0.001761w      3 calls
HF: Form C  :       0.00u       0.00s   0.000046w      3 calls
HF: Form D  :       0.00u       0.00s   0.000002w      3 calls

***********************************************************

Host: ed2

Timers On : Wed Mar 29 17:19:53 2017
Timers Off: Wed Mar 29 17:20:19 2017

Wall Time:       26.00 seconds

JK: (A|mn)  :       0.00u       0.00s   0.000215w      3 calls
JK: (A|Q)^-1/2:       0.05u       0.00s   0.057219w      3 calls
JK: (Q|mn)  :       0.00u       0.00s   0.000020w      3 calls
HF: Form H  :       0.00u       0.00s 0.00739300w      1 call
HF: Form S/X:       0.00u       0.00s 0.00006600w      1 call
HF: Guess   :       0.05u       0.00s 0.05538500w      1 call
SAD Guess   :       0.05u       0.00s 0.05004100w      1 call
JK: D       :       0.01u       0.01s   0.014246w  25010 calls
JK: USO2AO  :       0.01u       0.01s   0.023027w  25010 calls
JK: JK      :       0.34u       0.05s   0.461186w  25010 calls
JK: J       :       0.08u       0.00s   0.074787w  25010 calls
JK: J1      :       0.02u       0.00s   0.026488w  50017 calls
JK: J2      :       0.02u       0.00s   0.021077w  50017 calls
JK: K       :       0.13u       0.03s   0.184538w  25010 calls
JK: K1      :       0.09u       0.02s   0.118598w  75020 calls
JK: K2      :       0.01u       0.00s   0.027054w  50015 calls
JK: AO2USO  :       0.00u       0.00s   0.006689w  25010 calls
DIISManager::add_entry:       0.00u       0.00s   0.001587w      4 calls
DIISManager::extrapolate:       0.00u       0.00s   0.000052w      3 calls
DIISManager::extrapolate: bMatrix setup:       0.00u       0.00s   0.000006w      3 calls
DIISManager::extrapolate: bMatrix pseudoinverse:       0.00u       0.00s   0.000024w      3 calls
DIISManager::extrapolate: form new data:       0.00u       0.00s   0.000017w      3 calls
HF: Form G  :       0.00u       0.00s   0.000077w      3 calls
HF: Form F  :       0.00u       0.00s   0.000003w      3 calls
HF: DIIS    :       0.00u       0.00s   0.001617w      3 calls
HF: Form C  :       0.00u       0.00s   0.000043w      3 calls
HF: Form D  :       0.00u       0.00s   0.000002w      3 calls

***********************************************************

Host: ed2

Timers On : Wed Mar 29 17:21:07 2017
Timers Off: Wed Mar 29 17:21:33 2017

Wall Time:       26.00 seconds

JK: (A|mn)  :       0.00u       0.00s   0.000263w      3 calls
JK: (A|Q)^-1/2:       0.06u       0.00s   0.056887w      3 calls
JK: (Q|mn)  :       0.00u       0.00s   0.000020w      3 calls
HF: Form H  :       0.00u       0.00s 0.00789200w      1 call
HF: Form S/X:       0.00u       0.00s 0.00010100w      1 call
HF: Guess   :       0.06u       0.00s 0.06036100w      1 call
SAD Guess   :       0.05u       0.00s 0.05307500w      1 call
JK: D       :       0.02u       0.01s   0.014370w  25010 calls
JK: USO2AO  :       0.02u       0.00s   0.023955w  25010 calls
JK: JK      :       0.25u       0.04s   0.466755w  25010 calls
JK: J       :       0.03u       0.01s   0.075295w  25010 calls
JK: J1      :       0.03u       0.00s   0.026617w  50017 calls
JK: J2      :       0.00u       0.00s   0.021225w  50017 calls
JK: K       :       0.14u       0.01s   0.185732w  25010 calls
JK: K1      :       0.07u       0.00s   0.120417w  75020 calls
JK: K2      :       0.01u       0.00s   0.026630w  50015 calls
JK: AO2USO  :       0.00u       0.00s   0.006805w  25010 calls
DIISManager::add_entry:       0.00u       0.00s   0.001493w      4 calls
DIISManager::extrapolate:       0.00u       0.00s   0.000081w      3 calls
DIISManager::extrapolate: bMatrix setup:       0.00u       0.00s   0.000007w      3 calls
DIISManager::extrapolate: bMatrix pseudoinverse:       0.00u       0.00s   0.000032w      3 calls
DIISManager::extrapolate: form new data:       0.00u       0.00s   0.000035w      3 calls
HF: Form G  :       0.00u       0.00s   0.000086w      3 calls
HF: Form F  :       0.00u       0.00s   0.000004w      3 calls
HF: DIIS    :       0.00u       0.00s   0.001520w      3 calls
HF: Form C  :       0.00u       0.00s   0.000046w      3 calls
HF: Form D  :       0.00u       0.00s   0.000002w      3 calls

***********************************************************

Host: ed2

Timers On : Wed Mar 29 17:24:54 2017
Timers Off: Wed Mar 29 17:25:22 2017

Wall Time:       28.00 seconds

JK: (A|mn)  :       0.00u       0.00s   0.000210w      3 calls
JK: (A|Q)^-1/2:       0.06u       0.00s   0.057170w      3 calls
JK: (Q|mn)  :       0.00u       0.00s   0.000021w      3 calls
HF: Form H  :       0.00u       0.00s 0.00755200w      1 call
HF: Form S/X:       0.00u       0.00s 0.00009200w      1 call
HF: Guess   :       0.06u       0.00s 0.05946100w      1 call
SAD Guess   :       0.05u       0.00s 0.05222800w      1 call
JK: D       :       0.00u       0.01s   0.015345w  25010 calls
JK: USO2AO  :       0.00u       0.01s   0.024827w  25010 calls
JK: JK      :       0.23u       0.05s   0.471318w  25010 calls
JK: J       :       0.03u       0.01s   0.076348w  25010 calls
JK: J1      :       0.00u       0.00s   0.026823w  50017 calls
JK: J2      :       0.02u       0.01s   0.021653w  50017 calls
JK: K       :       0.14u       0.04s   0.188084w  25010 calls
JK: K1      :       0.10u       0.01s   0.119272w  75020 calls
JK: K2      :       0.01u       0.01s   0.026969w  50015 calls
JK: AO2USO  :       0.00u       0.00s   0.007097w  25010 calls
DIISManager::add_entry:       0.00u       0.00s   0.001518w      4 calls
DIISManager::extrapolate:       0.00u       0.00s   0.000054w      3 calls
DIISManager::extrapolate: bMatrix setup:       0.00u       0.00s   0.000006w      3 calls
DIISManager::extrapolate: bMatrix pseudoinverse:       0.00u       0.00s   0.000025w      3 calls
DIISManager::extrapolate: form new data:       0.00u       0.00s   0.000018w      3 calls
HF: Form G  :       0.00u       0.00s   0.000080w      3 calls
HF: Form F  :       0.00u       0.00s   0.000005w      3 calls
HF: DIIS    :       0.00u       0.00s   0.001549w      3 calls
HF: Form C  :       0.00u       0.00s   0.000044w      3 calls
HF: Form D  :       0.00u       0.00s   0.000002w      3 calls

***********************************************************

Host: ed2

Timers On : Wed Mar 29 17:29:45 2017
Timers Off: Wed Mar 29 17:30:13 2017

Wall Time:       28.00 seconds

JK: (A|mn)  :       0.01u       0.00s   0.000240w      3 calls
JK: (A|Q)^-1/2:       0.05u       0.00s   0.057093w      3 calls
JK: (Q|mn)  :       0.00u       0.00s   0.000021w      3 calls
HF: Form H  :       0.00u       0.01s 0.00769000w      1 call
HF: Form S/X:       0.00u       0.00s 0.00009000w      1 call
HF: Guess   :       0.06u       0.00s 0.05963600w      1 call
SAD Guess   :       0.05u       0.00s 0.05231700w      1 call
JK: D       :       0.01u       0.01s   0.014906w  25010 calls
JK: USO2AO  :       0.02u       0.00s   0.024625w  25010 calls
JK: JK      :       0.18u       0.05s   0.478322w  25010 calls
JK: J       :       0.02u       0.01s   0.077079w  25010 calls
JK: J1      :       0.01u       0.00s   0.027560w  50017 calls
JK: J2      :       0.00u       0.00s   0.021378w  50017 calls
JK: K       :       0.08u       0.02s   0.190919w  25010 calls
JK: K1      :       0.07u       0.00s   0.123452w  75020 calls
JK: K2      :       0.00u       0.00s   0.026750w  50015 calls
JK: AO2USO  :       0.00u       0.00s   0.006860w  25010 calls
DIISManager::add_entry:       0.00u       0.00s   0.001506w      4 calls
DIISManager::extrapolate:       0.00u       0.00s   0.000055w      3 calls
DIISManager::extrapolate: bMatrix setup:       0.00u       0.00s   0.000007w      3 calls
DIISManager::extrapolate: bMatrix pseudoinverse:       0.00u       0.00s   0.000023w      3 calls
DIISManager::extrapolate: form new data:       0.00u       0.00s   0.000019w      3 calls
HF: Form G  :       0.00u       0.00s   0.000078w      3 calls
HF: Form F  :       0.00u       0.00s   0.000004w      3 calls
HF: DIIS    :       0.00u       0.00s   0.001539w      3 calls
HF: Form C  :       0.00u       0.00s   0.000044w      3 calls
HF: Form D  :       0.00u       0.00s   0.000003w      3 calls

***********************************************************

Host: ed2

Timers On : Wed Mar 29 17:33:19 2017
Timers Off: Wed Mar 29 17:33:49 2017

Wall Time:       30.00 seconds

JK: (A|mn)  :       0.00u       0.00s   0.000225w      3 calls
JK: (A|Q)^-1/2:       0.06u       0.00s   0.058031w      3 calls
JK: (Q|mn)  :       0.00u       0.00s   0.000020w      3 calls
HF: Form H  :       0.00u       0.00s 0.00762400w      1 call
HF: Form S/X:       0.00u       0.00s 0.00006800w      1 call
HF: Guess   :       0.06u       0.00s 0.05936800w      1 call
SAD Guess   :       0.05u       0.00s 0.05419600w      1 call
JK: D       :       0.01u       0.00s   0.015160w  25010 calls
JK: USO2AO  :       0.01u       0.01s   0.025434w  25010 calls
JK: JK      :       0.28u       0.14s   0.480304w  25010 calls
JK: J       :       0.01u       0.08s   0.076297w  25010 calls
JK: J1      :       0.01u       0.05s   0.026685w  50017 calls
JK: J2      :       0.00u       0.01s   0.021284w  50017 calls
JK: K       :       0.14u       0.04s   0.190340w  25010 calls
JK: K1      :       0.08u       0.02s   0.122542w  75020 calls
JK: K2      :       0.01u       0.00s   0.027225w  50015 calls
JK: AO2USO  :       0.00u       0.00s   0.006775w  25010 calls
DIISManager::add_entry:       0.00u       0.00s   0.001373w      4 calls
DIISManager::extrapolate:       0.00u       0.00s   0.000058w      3 calls
DIISManager::extrapolate: bMatrix setup:       0.00u       0.00s   0.000007w      3 calls
DIISManager::extrapolate: bMatrix pseudoinverse:       0.00u       0.00s   0.000025w      3 calls
DIISManager::extrapolate: form new data:       0.00u       0.00s   0.000017w      3 calls
HF: Form G  :       0.00u       0.00s   0.000083w      3 calls
HF: Form F  :       0.00u       0.00s   0.000004w      3 calls
HF: DIIS    :       0.00u       0.00s   0.001405w      3 calls
HF: Form C  :       0.00u       0.00s   0.000060w      3 calls
HF: Form D  :       0.00u       0.00s   0.000002w      3 calls

***********************************************************

Host: ed2

Timers On : Wed Mar 29 18:02:43 2017
Timers Off: Wed Mar 29 18:03:11 2017

Wall Time:       28.00 seconds

JK: (A|mn)  :       0.00u       0.00s   0.000228w      3 calls
JK: (A|Q)^-1/2:       0.06u       0.00s   0.057897w      3 calls
JK: (Q|mn)  :       0.00u       0.00s   0.000021w      3 calls
HF: Form H  :       0.00u       0.00s 0.00800300w      1 call
HF: Form S/X:       0.00u       0.00s 0.00014300w      1 call
HF: Guess   :       0.06u       0.00s 0.06253100w      1 call
SAD Guess   :       0.05u       0.00s 0.05133200w      1 call
JK: D       :       0.00u       0.00s   0.014387w  25010 calls
JK: USO2AO  :       0.01u       0.00s   0.024320w  25010 calls
JK: JK      :       0.31u       0.08s   0.449905w  25010 calls
JK: J       :       0.06u       0.01s   0.074997w  25010 calls
JK: J1      :       0.02u       0.01s   0.026180w  50017 calls
JK: J2      :       0.02u       0.00s   0.020996w  50017 calls
JK: K       :       0.16u       0.06s   0.181380w  25010 calls
JK: K1      :       0.08u       0.01s   0.117079w  75020 calls
JK: K2      :       0.03u       0.01s   0.026422w  50015 calls
JK: AO2USO  :       0.00u       0.00s   0.006489w  25010 calls
DIISManager::add_entry:       0.00u       0.00s   0.001461w      4 calls
DIISManager::extrapolate:       0.00u       0.00s   0.000055w      3 calls
DIISManager::extrapolate: bMatrix setup:       0.00u       0.00s   0.000006w      3 calls
DIISManager::extrapolate: bMatrix pseudoinverse:       0.00u       0.00s   0.000025w      3 calls
DIISManager::extrapolate: form new data:       0.00u       0.00s   0.000019w      3 calls
HF: Form G  :       0.00u       0.00s   0.000084w      3 calls
HF: Form F  :       0.00u       0.00s   0.000004w      3 calls
HF: DIIS    :       0.00u       0.00s   0.001492w      3 calls
HF: Form C  :       0.00u       0.00s   0.000045w      3 calls
HF: Form D  :       0.00u       0.00s   0.000002w      3 calls

***********************************************************

Host: ed2

Timers On : Wed Mar 29 18:06:29 2017
Timers Off: Wed Mar 29 18:06:57 2017

Wall Time:       28.00 seconds

JK: (A|mn)  :       0.00u       0.00s   0.000209w      3 calls
JK: (A|Q)^-1/2:       0.06u       0.00s   0.057572w      3 calls
JK: (Q|mn)  :       0.00u       0.00s   0.000021w      3 calls
HF: Form H  :       0.00u       0.00s 0.00750200w      1 call
HF: Form S/X:       0.00u       0.00s 0.00006400w      1 call
HF: Guess   :       0.05u       0.00s 0.05559200w      1 call
SAD Guess   :       0.05u       0.00s 0.04963300w      1 call
JK: D       :       0.00u       0.00s   0.014636w  25010 calls
JK: USO2AO  :       0.02u       0.02s   0.025306w  25010 calls
JK: JK      :       0.26u       0.08s   0.471436w  25010 calls
JK: J       :       0.04u       0.02s   0.075931w  25010 calls
JK: J1      :       0.01u       0.02s   0.026451w  50017 calls
JK: J2      :       0.01u       0.00s   0.021178w  50017 calls
JK: K       :       0.12u       0.06s   0.190816w  25010 calls
JK: K1      :       0.08u       0.02s   0.124638w  75020 calls
JK: K2      :       0.03u       0.01s   0.027208w  50015 calls
JK: AO2USO  :       0.00u       0.00s   0.006665w  25010 calls
DIISManager::add_entry:       0.00u       0.00s   0.001479w      4 calls
DIISManager::extrapolate:       0.00u       0.00s   0.000055w      3 calls
DIISManager::extrapolate: bMatrix setup:       0.00u       0.00s   0.000005w      3 calls
DIISManager::extrapolate: bMatrix pseudoinverse:       0.00u       0.00s   0.000023w      3 calls
DIISManager::extrapolate: form new data:       0.00u       0.00s   0.000018w      3 calls
HF: Form G  :       0.00u       0.00s   0.000081w      3 calls
HF: Form F  :       0.00u       0.00s   0.000004w      3 calls
HF: DIIS    :       0.00u       0.00s   0.001508w      3 calls
HF: Form C  :       0.00u       0.00s   0.000042w      3 calls
HF: Form D  :       0.00u       0.00s   0.000000w      3 calls

***********************************************************

Host: ed2

Timers On : Wed Mar 29 18:10:13 2017
Timers Off: Wed Mar 29 18:10:39 2017

Wall Time:       26.00 seconds

JK: (A|mn)  :       0.01u       0.00s   0.000216w      3 calls
JK: (A|Q)^-1/2:       0.05u       0.00s   0.058603w      3 calls
JK: (Q|mn)  :       0.00u       0.00s   0.000021w      3 calls
HF: Form H  :       0.00u       0.00s 0.00695700w      1 call
HF: Form S/X:       0.01u       0.00s 0.00007300w      1 call
HF: Guess   :       0.05u       0.00s 0.05736800w      1 call
SAD Guess   :       0.05u       0.00s 0.05217900w      1 call
JK: D       :       0.00u       0.00s   0.013977w  25010 calls
JK: USO2AO  :       0.00u       0.00s   0.023947w  25010 calls
JK: JK      :       0.22u       0.08s   0.460050w  25010 calls
JK: J       :       0.05u       0.01s   0.075754w  25010 calls
JK: J1      :       0.03u       0.00s   0.026028w  50017 calls
JK: J2      :       0.02u       0.00s   0.021450w  50017 calls
JK: K       :       0.09u       0.04s   0.185846w  25010 calls
JK: K1      :       0.07u       0.02s   0.120234w  75020 calls
JK: K2      :       0.02u       0.01s   0.026773w  50015 calls
JK: AO2USO  :       0.00u       0.00s   0.006613w  25010 calls
DIISManager::add_entry:       0.00u       0.00s   0.001534w      4 calls
DIISManager::extrapolate:       0.00u       0.00s   0.000070w      3 calls
DIISManager::extrapolate: bMatrix setup:       0.00u       0.00s   0.000006w      3 calls
DIISManager::extrapolate: bMatrix pseudoinverse:       0.00u       0.00s   0.000026w      3 calls
DIISManager::extrapolate: form new data:       0.00u       0.00s   0.000020w      3 calls
HF: Form G  :       0.00u       0.00s   0.000083w      3 calls
HF: Form F  :       0.00u       0.00s   0.000006w      3 calls
HF: DIIS    :       0.00u       0.00s   0.001578w      3 calls
HF: Form C  :       0.00u       0.00s   0.000046w      3 calls
HF: Form D  :       0.00u       0.00s   0.000003w      3 calls

***********************************************************

Host: ed2

Timers On : Wed Mar 29 18:16:39 2017
Timers Off: Wed Mar 29 18:17:04 2017

Wall Time:       25.00 seconds

JK: (A|mn)  :       0.00u       0.00s   0.000207w      3 calls
JK: (A|Q)^-1/2:       0.06u       0.00s   0.057324w      3 calls
JK: (Q|mn)  :       0.00u       0.00s   0.000020w      3 calls
HF: Form H  :       0.00u       0.00s 0.00731800w      1 call
HF: Form S/X:       0.00u       0.00s 0.00006700w      1 call
HF: Guess   :       0.06u       0.00s 0.05811500w      1 call
SAD Guess   :       0.05u       0.00s 0.05291400w      1 call
JK: D       :       0.00u       0.01s   0.014008w  25010 calls
JK: USO2AO  :       0.01u       0.00s   0.023222w  25010 calls
JK: JK      :       0.17u       0.04s   0.457921w  25010 calls
JK: J       :       0.01u       0.00s   0.074809w  25010 calls
JK: J1      :       0.01u       0.00s   0.025759w  50017 calls
JK: J2      :       0.00u       0.00s   0.021256w  50017 calls
JK: K       :       0.08u       0.03s   0.185205w  25010 calls
JK: K1      :       0.06u       0.02s   0.118628w  75020 calls
JK: K2      :       0.00u       0.00s   0.026775w  50015 calls
JK: AO2USO  :       0.00u       0.01s   0.006496w  25010 calls
DIISManager::add_entry:       0.00u       0.00s   0.001599w      4 calls
DIISManager::extrapolate:       0.00u       0.00s   0.000056w      3 calls
DIISManager::extrapolate: bMatrix setup:       0.00u       0.00s   0.000006w      3 calls
DIISManager::extrapolate: bMatrix pseudoinverse:       0.00u       0.00s   0.000027w      3 calls
DIISManager::extrapolate: form new data:       0.00u       0.00s   0.000019w      3 calls
HF: Form G  :       0.00u       0.00s   0.000083w      3 calls
HF: Form F  :       0.00u       0.00s   0.000006w      3 calls
HF: DIIS    :       0.00u       0.00s   0.001630w      3 calls
HF: Form C  :       0.00u       0.00s   0.000047w      3 calls
HF: Form D  :       0.00u       0.00s   0.000002w      3 calls

***********************************************************

Host: ed2

Timers On : Wed Mar 29 19:57:14 2017
Timers Off: Wed Mar 29 19:57:19 2017

Wall Time:        5.00 seconds

JK: (A|mn)  :       0.00u       0.00s   0.000215w      3 calls
JK: (A|Q)^-1/2:       0.05u       0.00s   0.056663w      3 calls
JK: (Q|mn)  :       0.00u       0.00s   0.000021w      3 calls
HF: Form H  :       0.01u       0.00s 0.00763800w      1 call
HF: Form S/X:       0.00u       0.00s 0.00008300w      1 call
HF: Guess   :       0.05u       0.00s 0.05868900w      1 call
SAD Guess   :       0.05u       0.00s 0.05350000w      1 call
JK: D       :       0.02u       0.01s   0.012876w  25010 calls
JK: USO2AO  :       0.02u       0.00s   0.025192w  25010 calls
JK: JK      :       0.22u       0.04s   0.450875w  25010 calls
JK: J       :       0.03u       0.02s   0.074299w  25010 calls
JK: J1      :       0.01u       0.00s   0.025987w  50017 calls
JK: J2      :       0.02u       0.01s   0.020983w  50017 calls
JK: K       :       0.09u       0.00s   0.182937w  25010 calls
JK: K1      :       0.07u       0.00s   0.118895w  75020 calls
JK: K2      :       0.00u       0.00s   0.026665w  50015 calls
JK: AO2USO  :       0.00u       0.00s   0.006176w  25010 calls
DIISManager::add_entry:       0.00u       0.00s   0.001435w      4 calls
DIISManager::extrapolate:       0.00u       0.00s   0.000054w      3 calls
DIISManager::extrapolate: bMatrix setup:       0.00u       0.00s   0.000005w      3 calls
DIISManager::extrapolate: bMatrix pseudoinverse:       0.00u       0.00s   0.000024w      3 calls
DIISManager::extrapolate: form new data:       0.00u       0.00s   0.000019w      3 calls
HF: Form G  :       0.00u       0.00s   0.000079w      3 calls
HF: Form F  :       0.00u       0.00s   0.000005w      3 calls
HF: DIIS    :       0.00u       0.00s   0.001466w      3 calls
HF: Form C  :       0.00u       0.00s   0.000043w      3 calls
HF: Form D  :       0.00u       0.00s   0.000001w      3 calls

***********************************************************

Host: ed2

Timers On : Thu Mar 30 11:03:13 2017
Timers Off: Thu Mar 30 11:03:18 2017

Wall Time:        5.00 seconds

JK: (A|mn)  :       0.00u       0.00s   0.000187w      3 calls
JK: (A|Q)^-1/2:       0.06u       0.00s   0.055750w      3 calls
JK: (Q|mn)  :       0.00u       0.00s   0.000022w      3 calls
HF: Form H  :       0.00u       0.00s 0.00785100w      1 call
HF: Form S/X:       0.00u       0.00s 0.00006400w      1 call
HF: Guess   :       0.06u       0.00s 0.05809700w      1 call
SAD Guess   :       0.05u       0.00s 0.05206700w      1 call
JK: D       :       0.00u       0.01s   0.011815w  25010 calls
JK: USO2AO  :       0.00u       0.00s   0.023559w  25010 calls
JK: JK      :       0.25u       0.04s   0.435491w  25010 calls
JK: J       :       0.02u       0.01s   0.071336w  25010 calls
JK: J1      :       0.00u       0.00s   0.025190w  50017 calls
JK: J2      :       0.02u       0.00s   0.020350w  50017 calls
JK: K       :       0.12u       0.03s   0.176982w  25010 calls
JK: K1      :       0.07u       0.02s   0.115298w  75020 calls
JK: K2      :       0.03u       0.01s   0.025833w  50015 calls
JK: AO2USO  :       0.00u       0.00s   0.006448w  25010 calls
DIISManager::add_entry:       0.00u       0.00s   0.001646w      4 calls
DIISManager::extrapolate:       0.00u       0.00s   0.000049w      3 calls
DIISManager::extrapolate: bMatrix setup:       0.00u       0.00s   0.000005w      3 calls
DIISManager::extrapolate: bMatrix pseudoinverse:       0.00u       0.00s   0.000023w      3 calls
DIISManager::extrapolate: form new data:       0.00u       0.00s   0.000012w      3 calls
HF: Form G  :       0.00u       0.00s   0.000078w      3 calls
HF: Form F  :       0.00u       0.00s   0.000004w      3 calls
HF: DIIS    :       0.00u       0.00s   0.001678w      3 calls
HF: Form C  :       0.00u       0.00s   0.000054w      3 calls
HF: Form D  :       0.00u       0.00s   0.000002w      3 calls

***********************************************************

Host: ed2

Timers On : Thu Mar 30 11:05:16 2017
Timers Off: Thu Mar 30 11:05:22 2017

Wall Time:        6.00 seconds

JK: (A|mn)  :       0.00u       0.00s   0.000182w      3 calls
JK: (A|Q)^-1/2:       0.04u       0.00s   0.056856w      3 calls
JK: (Q|mn)  :       0.00u       0.00s   0.000020w      3 calls
HF: Form H  :       0.01u       0.00s 0.00737900w      1 call
HF: Form S/X:       0.00u       0.00s 0.00004400w      1 call
HF: Guess   :       0.05u       0.00s 0.05797300w      1 call
SAD Guess   :       0.05u       0.00s 0.05344400w      1 call
JK: D       :       0.01u       0.00s   0.013285w  25010 calls
JK: USO2AO  :       0.02u       0.00s   0.025748w  25010 calls
JK: JK      :       0.38u       0.07s   0.448212w  25010 calls
JK: J       :       0.03u       0.01s   0.072761w  25010 calls
JK: J1      :       0.01u       0.00s   0.025486w  50017 calls
JK: J2      :       0.01u       0.00s   0.020090w  50017 calls
JK: K       :       0.15u       0.01s   0.182197w  25010 calls
JK: K1      :       0.10u       0.01s   0.117655w  75020 calls
JK: K2      :       0.02u       0.00s   0.025971w  50015 calls
JK: AO2USO  :       0.01u       0.00s   0.006224w  25010 calls
DIISManager::add_entry:       0.00u       0.00s   0.001545w      4 calls
DIISManager::extrapolate:       0.00u       0.00s   0.000050w      3 calls
DIISManager::extrapolate: bMatrix setup:       0.00u       0.00s   0.000006w      3 calls
DIISManager::extrapolate: bMatrix pseudoinverse:       0.00u       0.00s   0.000024w      3 calls
DIISManager::extrapolate: form new data:       0.00u       0.00s   0.000015w      3 calls
HF: Form G  :       0.00u       0.00s   0.000077w      3 calls
HF: Form F  :       0.00u       0.00s   0.000004w      3 calls
HF: DIIS    :       0.00u       0.00s   0.001578w      3 calls
HF: Form C  :       0.00u       0.00s   0.000044w      3 calls
HF: Form D  :       0.00u       0.00s   0.000001w      3 calls

***********************************************************

Host: ed2

Timers On : Thu Mar 30 11:08:01 2017
Timers Off: Thu Mar 30 11:08:07 2017

Wall Time:        6.00 seconds

JK: (A|mn)  :       0.00u       0.00s   0.000172w      3 calls
JK: (A|Q)^-1/2:       0.05u       0.00s   0.055475w      3 calls
JK: (Q|mn)  :       0.00u       0.00s   0.000021w      3 calls
HF: Form H  :       0.00u       0.00s 0.00770900w      1 call
HF: Form S/X:       0.00u       0.00s 0.00004600w      1 call
HF: Guess   :       0.05u       0.00s 0.05749400w      1 call
SAD Guess   :       0.05u       0.00s 0.05272000w      1 call
JK: D       :       0.00u       0.01s   0.013425w  25010 calls
JK: USO2AO  :       0.01u       0.01s   0.025288w  25010 calls
JK: JK      :       0.14u       0.07s   0.443956w  25010 calls
JK: J       :       0.02u       0.03s   0.072484w  25010 calls
JK: J1      :       0.01u       0.00s   0.025419w  50017 calls
JK: J2      :       0.00u       0.00s   0.020005w  50017 calls
JK: K       :       0.05u       0.03s   0.177434w  25010 calls
JK: K1      :       0.05u       0.00s   0.115380w  75020 calls
JK: K2      :       0.00u       0.00s   0.025638w  50015 calls
JK: AO2USO  :       0.00u       0.00s   0.006466w  25010 calls
DIISManager::add_entry:       0.00u       0.00s   0.001468w      4 calls
DIISManager::extrapolate:       0.00u       0.00s   0.000046w      3 calls
DIISManager::extrapolate: bMatrix setup:       0.00u       0.00s   0.000005w      3 calls
DIISManager::extrapolate: bMatrix pseudoinverse:       0.00u       0.00s   0.000022w      3 calls
DIISManager::extrapolate: form new data:       0.00u       0.00s   0.000014w      3 calls
HF: Form G  :       0.00u       0.00s   0.000073w      3 calls
HF: Form F  :       0.00u       0.00s   0.000005w      3 calls
HF: DIIS    :       0.00u       0.00s   0.001497w      3 calls
HF: Form C  :       0.00u       0.00s   0.000039w      3 calls
HF: Form D  :       0.00u       0.00s   0.000000w      3 calls

***********************************************************

Host: ed2

Timers On : Thu Mar 30 11:09:28 2017
Timers Off: Thu Mar 30 11:09:36 2017

Wall Time:        8.00 seconds

JK: (A|mn)  :       0.00u       0.00s   0.000187w      3 calls
[...]

Host: ed2

Timers On : Thu Mar 30 11:54:57 2017
Timers Off: Thu Mar 30 11:55:07 2017

Wall Time:       10.00 seconds

JK: (A|mn)  :       0.00u       0.00s   0.000187w      3 calls
JK: (A|Q)^-1/2:       0.06u       0.00s   0.055348w      3 calls
JK: (Q|mn)  :       0.00u       0.00s   0.000021w      3 calls
HF: Form H  :       0.00u       0.00s 0.04214700w      1 call
HF: Form S/X:       0.00u       0.00s 0.00006300w      1 call
HF: Guess   :       0.06u       0.00s 0.05561200w      1 call
SAD Guess   :       0.05u       0.00s 0.04802300w      1 call
JK: D       :       0.01u       0.01s   0.014405w  25010 calls
JK: USO2AO  :       0.02u       0.01s   0.025109w  25010 calls
JK: JK      :       0.28u       0.10s   0.439748w  25010 calls
JK: J       :       0.07u       0.02s   0.071672w  25010 calls
JK: J1      :       0.01u       0.00s   0.025213w  50017 calls
JK: J2      :       0.04u       0.01s   0.020246w  50017 calls
JK: K       :       0.11u       0.07s   0.177810w  25010 calls
JK: K1      :       0.08u       0.01s   0.114264w  75020 calls
JK: K2      :       0.00u       0.01s   0.025914w  50015 calls
JK: AO2USO  :       0.00u       0.00s   0.006351w  25010 calls
DIISManager::add_entry:       0.00u       0.00s   0.001736w      4 calls
DIISManager::extrapolate:       0.00u       0.00s   0.000050w      3 calls
DIISManager::extrapolate: bMatrix setup:       0.00u       0.00s   0.000006w      3 calls
DIISManager::extrapolate: bMatrix pseudoinverse:       0.00u       0.00s   0.000024w      3 calls
DIISManager::extrapolate: form new data:       0.00u       0.00s   0.000014w      3 calls
HF: Form G  :       0.00u       0.00s   0.000081w      3 calls
HF: Form F  :       0.00u       0.00s   0.000005w      3 calls
HF: DIIS    :       0.00u       0.00s   0.001768w      3 calls
HF: Form C  :       0.00u       0.00s   0.000043w      3 calls
HF: Form D  :       0.00u       0.00s   0.000002w      3 calls

***********************************************************

Host: ed2

Timers On : Thu Mar 30 11:56:16 2017
Timers Off: Thu Mar 30 11:56:26 2017

Wall Time:       10.00 seconds

JK: (A|mn)  :       0.01u       0.00s   0.000186w      3 calls
JK: (A|Q)^-1/2:       0.04u       0.00s   0.055907w      3 calls
JK: (Q|mn)  :       0.00u       0.00s   0.000020w      3 calls
HF: Form H  :       0.01u       0.00s 0.00757300w      1 call
HF: Form S/X:       0.00u       0.00s 0.00007800w      1 call
HF: Guess   :       0.05u       0.00s 0.05859700w      1 call
SAD Guess   :       0.05u       0.00s 0.05470700w      1 call
JK: D       :       0.01u       0.00s   0.013768w  25010 calls
JK: USO2AO  :       0.00u       0.02s   0.025931w  25010 calls
JK: JK      :       0.21u       0.12s   0.437803w  25010 calls
JK: J       :       0.02u       0.04s   0.072010w  25010 calls
JK: J1      :       0.02u       0.00s   0.025667w  50017 calls
JK: J2      :       0.00u       0.02s   0.020232w  50017 calls
JK: K       :       0.10u       0.06s   0.175255w  25010 calls
JK: K1      :       0.08u       0.02s   0.112771w  75020 calls
JK: K2      :       0.01u       0.02s   0.026188w  50015 calls
JK: AO2USO  :       0.01u       0.02s   0.006456w  25010 calls
DIISManager::add_entry:       0.00u       0.00s   0.001636w      4 calls
DIISManager::extrapolate:       0.00u       0.00s   0.000050w      3 calls
DIISManager::extrapolate: bMatrix setup:       0.00u       0.00s   0.000007w      3 calls
DIISManager::extrapolate: bMatrix pseudoinverse:       0.00u       0.00s   0.000024w      3 calls
DIISManager::extrapolate: form new data:       0.00u       0.00s   0.000016w      3 calls
HF: Form G  :       0.00u       0.00s   0.000076w      3 calls
HF: Form F  :       0.00u       0.00s   0.000005w      3 calls
HF: DIIS    :       0.00u       0.00s   0.001667w      3 calls
HF: Form C  :       0.00u       0.00s   0.000044w      3 calls
HF: Form D  :       0.00u       0.00s   0.000002w      3 calls

***********************************************************

Host: ed2

Timers On : Thu Mar 30 12:16:00 2017
Timers Off: Thu Mar 30 12:16:59 2017

Wall Time:       59.00 seconds

JK: (A|mn)  :       0.00u       0.00s   0.000186w      3 calls
JK: (A|Q)^-1/2:       0.06u       0.00s   0.056508w      3 calls
JK: (Q|mn)  :       0.00u       0.00s   0.000021w      3 calls
HF: Form H  :       0.00u       0.00s 0.00764900w      1 call
HF: Form S/X:       0.00u       0.00s 0.00006300w      1 call
HF: Guess   :       0.06u       0.00s 0.05825300w      1 call
SAD Guess   :       0.05u       0.00s 0.05085900w      1 call
JK: D       :       0.88u       0.19s   0.946225w 2500010 calls
JK: USO2AO  :       1.50u       0.26s   1.771165w 2500010 calls
JK: JK      :      30.59u       6.61s      37.48w 2500010 calls
JK: J       :       5.26u       2.00s   6.752981w 2500010 calls
JK: J1      :       1.62u       0.51s   2.252287w 5000017 calls
JK: J2      :       1.59u       0.47s   2.041252w 5000017 calls
JK: K       :      13.08u       3.13s      16.52w 2500010 calls
JK: K1      :       8.14u       1.45s      10.46w 7500020 calls
JK: K2      :       2.09u       0.43s   2.593388w 5000015 calls
JK: AO2USO  :       0.53u       0.17s   0.554053w 2500010 calls
DIISManager::add_entry:       0.00u       0.00s   0.001629w      4 calls
DIISManager::extrapolate:       0.00u       0.00s   0.000049w      3 calls
DIISManager::extrapolate: bMatrix setup:       0.00u       0.00s   0.000007w      3 calls
DIISManager::extrapolate: bMatrix pseudoinverse:       0.00u       0.00s   0.000023w      3 calls
DIISManager::extrapolate: form new data:       0.00u       0.00s   0.000014w      3 calls
HF: Form G  :       0.00u       0.00s   0.000078w      3 calls
HF: Form F  :       0.00u       0.00s   0.000004w      3 calls
HF: DIIS    :       0.00u       0.00s   0.001661w      3 calls
HF: Form C  :       0.00u       0.00s   0.000043w      3 calls
HF: Form D  :       0.00u       0.00s   0.000001w      3 calls

***********************************************************

Host: ed2

Timers On : Thu Mar 30 13:48:09 2017
Timers Off: Thu Mar 30 14:03:37 2017

Wall Time:      928.00 seconds

JK: (A|mn)  :       0.00u       0.00s   0.000228w      3 calls
JK: (A|Q)^-1/2:       0.05u       0.00s   0.056466w      3 calls
JK: (Q|mn)  :       0.00u       0.00s   0.000021w      3 calls
HF: Form H  :       0.00u       0.00s 0.00765300w      1 call
HF: Form S/X:       0.00u       0.00s 0.00005600w      1 call
HF: Guess   :       0.05u       0.00s 0.05837300w      1 call
SAD Guess   :       0.05u       0.00s 0.05278200w      1 call
JK: D       :       1.28u       0.69s   1.513944w 2500010 calls
JK: USO2AO  :       1.87u       0.47s   2.677011w 2500010 calls
JK: JK      :      33.96u       9.10s      46.39w 2500010 calls
JK: J       :       5.23u       2.93s   7.585014w 2500010 calls
JK: J1      :       1.86u       0.76s   2.684509w 5000017 calls
JK: J2      :       1.33u       0.63s   2.143848w 5000017 calls
JK: K       :      13.91u       4.03s      18.78w 2500010 calls
JK: K1      :       9.36u       1.80s      12.19w 7500020 calls
JK: K2      :       1.76u       0.55s   2.695270w 5000015 calls
JK: AO2USO  :       0.40u       0.34s   0.641645w 2500010 calls
DIISManager::add_entry:       0.00u       0.00s   0.001683w      4 calls
DIISManager::extrapolate:       0.00u       0.00s   0.000057w      3 calls
DIISManager::extrapolate: bMatrix setup:       0.00u       0.00s   0.000006w      3 calls
DIISManager::extrapolate: bMatrix pseudoinverse:       0.00u       0.00s   0.000026w      3 calls
DIISManager::extrapolate: form new data:       0.00u       0.00s   0.000018w      3 calls
HF: Form G  :       0.01u       0.00s   0.000083w      3 calls
HF: Form F  :       0.00u       0.00s   0.000005w      3 calls
HF: DIIS    :       0.00u       0.00s   0.001719w      3 calls
HF: Form C  :       0.00u       0.00s   0.000046w      3 calls
HF: Form D  :       0.00u       0.00s   0.000001w      3 calls

***********************************************************

Host: ed2

Timers On : Fri Mar 31 11:56:19 2017
Timers Off: Fri Mar 31 12:10:29 2017

Wall Time:      850.00 seconds

JK: (A|mn)  :       0.00u       0.00s   0.000200w      3 calls
JK: (A|Q)^-1/2:       0.06u       0.00s   0.056652w      3 calls
JK: (Q|mn)  :       0.00u       0.00s   0.000020w      3 calls
HF: Form H  :       0.00u       0.00s 0.00730500w      1 call
HF: Form S/X:       0.00u       0.00s 0.00006500w      1 call
HF: Guess   :       0.06u       0.00s 0.05842000w      1 call
SAD Guess   :       0.05u       0.00s 0.05357400w      1 call
JK: D       :       1.10u       0.83s   1.488242w 2500010 calls
JK: USO2AO  :       1.44u       0.58s   2.495972w 2500010 calls
JK: JK      :      25.70u      13.12s      43.88w 2500010 calls
JK: J       :       3.83u       3.48s   7.217945w 2500010 calls
JK: J1      :       1.45u       0.98s   2.553424w 5000017 calls
JK: J2      :       1.09u       0.77s   2.018725w 5000017 calls
JK: K       :       9.96u       5.58s      17.62w 2500010 calls
JK: K1      :       6.83u       2.82s      11.35w 7500020 calls
JK: K2      :       1.33u       0.80s   2.582824w 5000015 calls
JK: AO2USO  :       0.28u       0.34s   0.621219w 2500010 calls
DIISManager::add_entry:       0.00u       0.00s   0.001782w      4 calls
DIISManager::extrapolate:       0.00u       0.00s   0.000056w      3 calls
DIISManager::extrapolate: bMatrix setup:       0.00u       0.00s   0.000005w      3 calls
DIISManager::extrapolate: bMatrix pseudoinverse:       0.00u       0.00s   0.000025w      3 calls
DIISManager::extrapolate: form new data:       0.00u       0.00s   0.000017w      3 calls
HF: Form G  :       0.00u       0.00s   0.000083w      3 calls
HF: Form F  :       0.00u       0.00s   0.000004w      3 calls
HF: DIIS    :       0.00u       0.00s   0.001818w      3 calls
HF: Form C  :       0.00u       0.00s   0.000047w      3 calls
HF: Form D  :       0.00u       0.00s   0.000003w      3 calls

***********************************************************

Host: ed2

Timers On : Fri Mar 31 13:57:10 2017
Timers Off: Fri Mar 31 14:11:56 2017

Wall Time:      886.00 seconds

JK: (A|mn)  :       0.00u       0.00s   0.000197w      3 calls
JK: (A|Q)^-1/2:       0.06u       0.00s   0.056942w      3 calls
JK: (Q|mn)  :       0.00u       0.00s   0.000022w      3 calls
HF: Form H  :       0.00u       0.00s 0.00772300w      1 call
HF: Form S/X:       0.00u       0.00s 0.00006300w      1 call
HF: Guess   :       0.06u       0.00s 0.05959600w      1 call
SAD Guess   :       0.05u       0.00s 0.05404900w      1 call
JK: D       :       0.87u       0.61s   1.324533w 2500010 calls
JK: USO2AO  :       1.81u       0.41s   2.542488w 2500010 calls
JK: JK      :      33.93u       7.47s      44.48w 2500010 calls
JK: J       :       5.22u       2.46s   7.246771w 2500010 calls
JK: J1      :       1.90u       0.53s   2.543269w 5000017 calls
JK: J2      :       1.53u       0.64s   2.040636w 5000017 calls
JK: K       :      14.56u       3.46s      18.11w 2500010 calls
JK: K1      :       9.62u       1.27s      11.88w 7500020 calls
JK: K2      :       1.96u       0.56s   2.582177w 5000015 calls
JK: AO2USO  :       0.40u       0.28s   0.611867w 2500010 calls
DIISManager::add_entry:       0.00u       0.00s   0.001445w      4 calls
DIISManager::extrapolate:       0.00u       0.00s   0.000054w      3 calls
DIISManager::extrapolate: bMatrix setup:       0.00u       0.00s   0.000006w      3 calls
DIISManager::extrapolate: bMatrix pseudoinverse:       0.00u       0.00s   0.000024w      3 calls
DIISManager::extrapolate: form new data:       0.00u       0.00s   0.000017w      3 calls
HF: Form G  :       0.00u       0.00s   0.000079w      3 calls
HF: Form F  :       0.00u       0.00s   0.000004w      3 calls
HF: DIIS    :       0.00u       0.00s   0.001476w      3 calls
HF: Form C  :       0.00u       0.00s   0.000055w      3 calls
HF: Form D  :       0.00u       0.00s   0.000002w      3 calls

***********************************************************

Host: ed2

Timers On : Fri Mar 31 15:46:35 2017
Timers Off: Fri Mar 31 16:01:16 2017

Wall Time:      881.00 seconds

JK: (A|mn)  :       0.00u       0.00s   0.000225w      3 calls
JK: (A|Q)^-1/2:       0.06u       0.00s   0.057158w      3 calls
JK: (Q|mn)  :       0.00u       0.00s   0.000020w      3 calls
HF: Form H  :       0.00u       0.00s 0.00706600w      1 call
HF: Form S/X:       0.00u       0.00s 0.00006600w      1 call
HF: Guess   :       0.06u       0.00s 0.05897900w      1 call
SAD Guess   :       0.05u       0.00s 0.05334500w      1 call
JK: D       :       0.81u       0.64s   1.327008w 2500010 calls
JK: USO2AO  :       1.69u       0.46s   2.539285w 2500010 calls
JK: JK      :      30.13u       7.22s      44.71w 2500010 calls
JK: J       :       4.48u       2.60s   7.410181w 2500010 calls
JK: J1      :       1.62u       0.61s   2.661938w 5000017 calls
JK: J2      :       1.28u       0.63s   2.049199w 5000017 calls
JK: K       :      12.16u       3.19s      17.84w 2500010 calls
JK: K1      :       8.24u       1.21s      11.54w 7500020 calls
JK: K2      :       1.66u       0.43s   2.610995w 5000015 calls
JK: AO2USO  :       0.43u       0.24s   0.661065w 2500010 calls
DIISManager::add_entry:       0.00u       0.00s   0.001469w      4 calls
DIISManager::extrapolate:       0.00u       0.00s   0.000056w      3 calls
DIISManager::extrapolate: bMatrix setup:       0.00u       0.00s   0.000006w      3 calls
DIISManager::extrapolate: bMatrix pseudoinverse:       0.00u       0.00s   0.000024w      3 calls
DIISManager::extrapolate: form new data:       0.00u       0.00s   0.000019w      3 calls
HF: Form G  :       0.00u       0.00s   0.000080w      3 calls
HF: Form F  :       0.00u       0.00s   0.000004w      3 calls
HF: DIIS    :       0.00u       0.00s   0.001499w      3 calls
HF: Form C  :       0.00u       0.00s   0.000044w      3 calls
HF: Form D  :       0.00u       0.00s   0.000001w      3 calls

***********************************************************

Host: ed2

Timers On : Fri Mar 31 17:55:40 2017
Timers Off: Fri Mar 31 18:10:54 2017

Wall Time:      914.00 seconds

JK: (A|mn)  :       0.00u       0.00s   0.000211w      3 calls
JK: (A|Q)^-1/2:       0.06u       0.00s   0.057066w      3 calls
JK: (Q|mn)  :       0.00u       0.00s   0.000020w      3 calls
HF: Form H  :       0.00u       0.00s 0.00951900w      1 call
HF: Form S/X:       0.00u       0.00s 0.00014600w      1 call
HF: Guess   :       0.06u       0.00s 0.05800900w      1 call
SAD Guess   :       0.05u       0.00s 0.04843700w      1 call
JK: D       :       1.52u       0.65s   1.364719w 2500010 calls
JK: USO2AO  :       1.95u       0.38s   2.517224w 2500010 calls
JK: JK      :      39.64u       8.16s      45.14w 2500010 calls
JK: J       :       6.21u       2.54s   7.421652w 2500010 calls
JK: J1      :       2.48u       0.69s   2.679002w 5000017 calls
JK: J2      :       1.77u       0.62s   2.055080w 5000017 calls
JK: K       :      15.82u       3.83s      17.93w 2500010 calls
JK: K1      :      10.58u       1.47s      11.66w 7500020 calls
JK: K2      :       2.38u       0.58s   2.619322w 5000015 calls
JK: AO2USO  :       0.60u       0.41s   0.631831w 2500010 calls
DIISManager::add_entry:       0.00u       0.00s   0.001822w      4 calls
DIISManager::extrapolate:       0.00u       0.00s   0.000060w      3 calls
DIISManager::extrapolate: bMatrix setup:       0.00u       0.00s   0.000008w      3 calls
DIISManager::extrapolate: bMatrix pseudoinverse:       0.00u       0.00s   0.000027w      3 calls
DIISManager::extrapolate: form new data:       0.00u       0.00s   0.000019w      3 calls
HF: Form G  :       0.00u       0.00s   0.000086w      3 calls
HF: Form F  :       0.00u       0.00s   0.000003w      3 calls
HF: DIIS    :       0.00u       0.00s   0.001860w      3 calls
HF: Form C  :       0.00u       0.00s   0.000049w      3 calls
HF: Form D  :       0.00u       0.00s   0.000001w      3 calls

***********************************************************

Host: ed2

Timers On : Fri Mar 31 18:59:02 2017
Timers Off: Fri Mar 31 18:59:12 2017

Wall Time:       10.00 seconds

JK: (A|mn)  :       0.00u       0.00s   0.000198w      3 calls
JK: (A|Q)^-1/2:       0.06u       0.00s   0.056801w      3 calls
JK: (Q|mn)  :       0.00u       0.00s   0.000021w      3 calls
HF: Form H  :       0.00u       0.00s 0.00710800w      1 call
HF: Form S/X:       0.00u       0.00s 0.00007000w      1 call
HF: Guess   :       0.06u       0.00s 0.05863600w      1 call
SAD Guess   :       0.05u       0.00s 0.05304800w      1 call
JK: D       :       0.01u       0.00s   0.012995w  25010 calls
JK: USO2AO  :       0.05u       0.00s   0.026628w  25010 calls
JK: JK      :       0.41u       0.11s   0.458889w  25010 calls
JK: J       :       0.06u       0.00s   0.076042w  25010 calls
JK: J1      :       0.03u       0.00s   0.026672w  50017 calls
JK: J2      :       0.00u       0.00s   0.021376w  50017 calls
JK: K       :       0.15u       0.09s   0.183047w  25010 calls
JK: K1      :       0.05u       0.03s   0.118666w  75020 calls
JK: K2      :       0.06u       0.03s   0.026820w  50015 calls
JK: AO2USO  :       0.00u       0.00s   0.006563w  25010 calls
DIISManager::add_entry:       0.00u       0.00s   0.001426w      4 calls
DIISManager::extrapolate:       0.00u       0.00s   0.000055w      3 calls
DIISManager::extrapolate: bMatrix setup:       0.00u       0.00s   0.000006w      3 calls
DIISManager::extrapolate: bMatrix pseudoinverse:       0.00u       0.00s   0.000023w      3 calls
DIISManager::extrapolate: form new data:       0.00u       0.00s   0.000015w      3 calls
HF: Form G  :       0.00u       0.00s   0.000089w      3 calls
HF: Form F  :       0.00u       0.00s   0.000005w      3 calls
HF: DIIS    :       0.00u       0.00s   0.001459w      3 calls
HF: Form C  :       0.00u       0.00s   0.000056w      3 calls
HF: Form D  :       0.00u       0.00s   0.000001w      3 calls

***********************************************************

Host: ed2

Timers On : Fri Mar 31 19:00:22 2017
Timers Off: Fri Mar 31 19:00:32 2017

Wall Time:       10.00 seconds

JK: (A|mn)  :       0.00u       0.00s   0.000223w      3 calls
JK: (A|Q)^-1/2:       0.06u       0.00s   0.057263w      3 calls
JK: (Q|mn)  :       0.00u       0.00s   0.000021w      3 calls
HF: Form H  :       0.00u       0.00s 0.00722000w      1 call
HF: Form S/X:       0.00u       0.00s 0.00007200w      1 call
HF: Guess   :       0.05u       0.00s 0.05842800w      1 call
SAD Guess   :       0.05u       0.00s 0.05285000w      1 call
JK: D       :       0.00u       0.01s   0.013420w  25010 calls
JK: USO2AO  :       0.00u       0.00s   0.026248w  25010 calls
JK: JK      :       0.32u       0.10s   0.456767w  25010 calls
JK: J       :       0.05u       0.02s   0.074219w  25010 calls
JK: J1      :       0.02u       0.01s   0.025906w  50017 calls
JK: J2      :       0.01u       0.01s   0.020851w  50017 calls
JK: K       :       0.17u       0.06s   0.181949w  25010 calls
JK: K1      :       0.08u       0.03s   0.118187w  75020 calls
JK: K2      :       0.03u       0.00s   0.026378w  50015 calls
JK: AO2USO  :       0.00u       0.00s   0.006601w  25010 calls
DIISManager::add_entry:       0.00u       0.00s   0.001591w      4 calls
DIISManager::extrapolate:       0.00u       0.00s   0.000056w      3 calls
DIISManager::extrapolate: bMatrix setup:       0.00u       0.00s   0.000007w      3 calls
DIISManager::extrapolate: bMatrix pseudoinverse:       0.00u       0.00s   0.000024w      3 calls
DIISManager::extrapolate: form new data:       0.00u       0.00s   0.000020w      3 calls
HF: Form G  :       0.00u       0.00s   0.000080w      3 calls
HF: Form F  :       0.00u       0.00s   0.000004w      3 calls
HF: DIIS    :       0.00u       0.00s   0.001621w      3 calls
HF: Form C  :       0.00u       0.00s   0.000046w      3 calls
HF: Form D  :       0.00u       0.00s   0.000001w      3 calls

***********************************************************
